
                                 *****************
                                 * O   R   C   A *
                                 *****************

                                            #,                                       
                                            ###                                      
                                            ####                                     
                                            #####                                    
                                            ######                                   
                                           ########,                                 
                                     ,,################,,,,,                         
                               ,,#################################,,                 
                          ,,##########################################,,             
                       ,#########################################, ''#####,          
                    ,#############################################,,   '####,        
                  ,##################################################,,,,####,       
                ,###########''''           ''''###############################       
              ,#####''   ,,,,##########,,,,          '''####'''          '####       
            ,##' ,,,,###########################,,,                        '##       
           ' ,,###''''                  '''############,,,                           
         ,,##''                                '''############,,,,        ,,,,,,###''
      ,#''                                            '''#######################'''  
     '                                                          ''''####''''         
             ,#######,   #######,   ,#######,      ##                                
            ,#'     '#,  ##    ##  ,#'     '#,    #''#        ,####,   ,####,        
            ##       ##  ##   ,#'  ##            #'  '#       #'       #'  '#        
            ##       ##  #######   ##           ,######,      #####,   #    #        
            '#,     ,#'  ##    ##  '#,     ,#' ,#      #,     #,   #   #,  ,#        
             '#######'   ##     ##  '#######'  #'      '#     '####' # '####'        



                #########################################################
                #                        -***-                          #
                #          Department of theory and spectroscopy        #
                #                                                       #
                #                      Frank Neese                      #
                #                                                       #
                #     Directorship, Architecture, Infrastructure        #
                #                    SHARK, DRIVERS                     #
                #        Core code/Algorithms in most modules           #
                #                                                       #
                #        Max Planck Institute fuer Kohlenforschung      #
                #                Kaiser Wilhelm Platz 1                 #
                #                 D-45470 Muelheim/Ruhr                 #
                #                      Germany                          #
                #                                                       #
                #                  All rights reserved                  #
                #                        -***-                          #
                #########################################################


                         Program Version 6.0.0  -   RELEASE  -


 With contributions from (in alphabetic order):
   Daniel Aravena         : Magnetic Suceptibility
   Michael Atanasov       : Ab Initio Ligand Field Theory (pilot matlab implementation)
   Alexander A. Auer      : GIAO ZORA, VPT2 properties, NMR spectrum
   Ute Becker             : All parallelization in ORCA, NUMFREQ, NUMCALC
   Giovanni Bistoni       : ED, misc. LED, open-shell LED, HFLD
   Martin Brehm           : Molecular dynamics
   Dmytro Bykov           : pre 5.0 version of the SCF Hessian
   Marcos Casanova-Páez   : Triplet and SCS-CIS(D). UHF-(DLPNO)-IP/EA/STEOM-CCSD. UHF-CVS-IP/STEOM-CCSD
   Vijay G. Chilkuri      : MRCI spin determinant printing, contributions to CSF-ICE
   Pauline Colinet        : FMM embedding
   Dipayan Datta          : RHF DLPNO-CCSD density
   Achintya Kumar Dutta   : EOM-CC, STEOM-CC
   Nicolas Foglia         : Exact transition moments, OPA infrastructure, MCD improvements
   Dmitry Ganyushin       : Spin-Orbit,Spin-Spin,Magnetic field MRCI
   Miquel Garcia          : C-PCM and meta-GGA Hessian, CCSD/C-PCM, Gaussian charge scheme
   Tiago L. C. Gouveia    : GS-ROHF, GS-ROCIS
   Yang Guo               : DLPNO-NEVPT2, F12-NEVPT2, CIM, IAO-localization
   Andreas Hansen         : Spin unrestricted coupled pair/coupled cluster methods
   Ingolf Harden          : AUTO-CI MPn and infrastructure 
   Benjamin Helmich-Paris : MC-RPA, TRAH-(SCF,CASSCF), AVAS, COSX integrals, SCF dyn. polar.
   Lee Huntington         : MR-EOM, pCC
   Robert Izsak           : Overlap fitted RIJCOSX, COSX-SCS-MP3, EOM
   Riya Kayal             : Wick's Theorem for AUTO-CI, AUTO-CI UHF-CCSDT
   Emily Kempfer          : AUTO-CI, RHF CISDT and CCSDT
   Christian Kollmar      : KDIIS, OOCD, Brueckner-CCSD(T), CCSD density, CASPT2, CASPT2-K, improved NEVPT2
   Axel Koslowski         : Symmetry handling
   Simone Kossmann        : Meta GGA functionals, TD-DFT gradient, OOMP2, (MP2 Hessian; deprecated post 5.0)
   Lucas Lang             : DCDCAS
   Marvin Lechner         : AUTO-CI (C++ implementation), FIC-MRCC
   Spencer Leger          : CASSCF response
   Dagmar Lenk            : GEPOL surface, SMD, ORCA-2-JSON
   Dimitrios Liakos       : Extrapolation schemes; Compound Job, initial MDCI parallelization
   Dimitrios Manganas     : Further ROCIS development; embedding schemes. LFT, Crystal Embedding
   Dimitrios Pantazis     : SARC Basis sets
   Anastasios Papadopoulos: AUTO-CI, single reference methods and gradients
   Taras Petrenko         : pre 6.0 DFT Hessian and TD-DFT gradient, (ASA, deprecated), ECA, 1-Electron XAS/XES, NRVS
   Peter Pinski           : DLPNO-MP2, DLPNO-MP2 Gradient
   Christoph Reimann      : Effective Core Potentials
   Marius Retegan         : Local ZFS, SOC
   Christoph Riplinger    : Optimizer, TS searches, QM/MM, DLPNO-CCSD(T), (RO)-DLPNO pert. Triples
   Michael Roemelt        : Original ROCIS implementation
   Masaaki Saitow         : Open-shell DLPNO-CCSD energy and density
   Barbara Sandhoefer     : DKH picture change effects
   Kantharuban Sivalingam : CASSCF convergence/infrastructure, NEVPT2 and variants, FIC-MRCI
   Bernardo de Souza      : ESD, SOC TD-DFT
   Georgi Stoychev        : AutoAux, RI-MP2 NMR, DLPNO-MP2 response, X2C
   Van Anh Tran           : RI-MP2 g-tensors
   Willem Van den Heuvel  : Paramagnetic NMR
   Zikuan Wang            : NOTCH, Electric field optimization 
   Frank Wennmohs         : Technical directorship and infrastructure
   Hang Xu                : AUTO-CI-Response properties 


 We gratefully acknowledge several colleagues who have allowed us to
 interface, adapt or use parts of their codes:
   Stefan Grimme, W. Hujo, H. Kruse, P. Pracht,  : VdW corrections, initial TS optimization,
                  C. Bannwarth, S. Ehlert,         DFT functionals, gCP, sTDA/sTD-DF
                  L. Wittmann, M. Mueller
   Ed Valeev, F. Pavosevic, A. Kumar             : LibInt (2-el integral package), F12 methods
   Garnet Chan, S. Sharma, J. Yang, R. Olivares  : DMRG
   Ulf Ekstrom                                   : XCFun DFT Library
   Mihaly Kallay                                 : mrcc  (arbitrary order and MRCC methods)
   Frank Weinhold                                : gennbo (NPA and NBO analysis)
   Simon Mueller                                 : openCOSMO-RS
   Christopher J. Cramer and Donald G. Truhlar   : smd solvation model
   Lars Goerigk                                  : TD-DFT with DH, B97 family of functionals
   V. Asgeirsson, H. Jonsson                     : NEB implementation
   FAccTs GmbH                                   : IRC, NEB, NEB-TS, DLPNO-Multilevel, CI-OPT
                                                   MM, QMMM, 2- and 3-layer-ONIOM, Crystal-QMMM,
                                                   LR-CPCM, SF, NACMEs, symmetry and pop. for TD-DFT,
                                                   nearIR, NL-DFT gradient (VV10), updates on ESD,
                                                   ML-optimized integration grids, MBIS, APM,
                                                   GOAT, DOCKER, SOLVATOR, interface openCOSMO-RS
   S Lehtola, MJT Oliveira, MAL Marques          : LibXC Library
   Liviu Ungur et al                             : ANISO software


 Your calculation uses the libint2 library for the computation of 2-el integrals
 For citations please refer to: http://libint.valeyev.net

 Your ORCA version has been built with support for libXC version: 6.2.2
 For citations please refer to: https://libxc.gitlab.io

 This ORCA versions uses:
   CBLAS   interface :  Fast vector & matrix operations
   LAPACKE interface :  Fast linear algebra routines
   SCALAPACK package :  Parallel linear algebra routines
   Shared memory     :  Shared parallel matrices
   BLAS/LAPACK       :  OpenBLAS 0.3.27  USE64BITINT DYNAMIC_ARCH NO_AFFINITY Prescott SINGLE_THREADED
        Core in use  :  Prescott
   Copyright (c) 2011-2014, The OpenBLAS Project


NOTE: MaxCore=1800 MB was set to SCF,MP2,MDCI,CIPSI,MRCI and CIS
      => If you want to overwrite this, your respective input block should be placed after the MaxCore statement


***************************************
The coordinates will be read from file: cis.xyz
***************************************


Your calculation utilizes the atom-pairwise dispersion correction
based on EEQ partial charges (D4)


Warning: RI is on but no J-basis has been assigned. Assigning Def2/J (nothing to worry about!)
================================================================================

----- Orbital basis set information -----
Your calculation utilizes the basis: def2-TZVP
   F. Weigend and R. Ahlrichs, Phys. Chem. Chem. Phys. 7, 3297 (2005).

----- AuxJ basis set information -----
Your calculation utilizes the auxiliary basis: def2/J
   F. Weigend, Phys. Chem. Chem. Phys. 8, 1057 (2006).

================================================================================
                                        WARNINGS
                       Please study these warnings very carefully!
================================================================================


WARNING: Geometry Optimization
  ===> : Switching off AutoStart
         For restart on a previous wavefunction, please use MOREAD

================================================================================
                                       INPUT FILE
================================================================================
NAME = cis.inp
|  1> !B3LYP D4 DEF2-TZVP OPT FREQ PAL4
|  2> %maxcore 1800
|  3> 
|  4> * XYZFILE 0 1 cis.xyz
|  5> 
|  6>                          ****END OF INPUT****
================================================================================

                       *****************************
                       * Geometry Optimization Run *
                       *****************************

Geometry optimization settings:
Update method            Update   .... BFGS
Choice of coordinates    CoordSys .... (2022) Redundant Internals
Initial Hessian          InHess   .... Almloef's Model
Max. no of cycles        MaxIter  .... 50

Convergence Tolerances:
Energy Change            TolE     ....  5.0000e-06 Eh
Max. Gradient            TolMAXG  ....  3.0000e-04 Eh/bohr
RMS Gradient             TolRMSG  ....  1.0000e-04 Eh/bohr
Max. Displacement        TolMAXD  ....  4.0000e-03 bohr
RMS Displacement         TolRMSD  ....  2.0000e-03 bohr
Strict Convergence                .... False

------------------------------------------------------------------------------
                        ORCA OPTIMIZATION COORDINATE SETUP
------------------------------------------------------------------------------

The optimization will be done in redundant internal coordinates (2022)
Making redundant internal coordinates   ...  (2022 redundants) done
Evaluating the initial hessian          ...  (Almloef) done
Evaluating the coordinates              ...  done
Calculating the B-matrix                .... done
Calculating the G-matrix                .... done
Diagonalizing the G-matrix              .... done
The first mode is                       ....   13
The number of degrees of freedom        ....   30

    -----------------------------------------------------------------
                    Redundant Internal Coordinates


    -----------------------------------------------------------------
         Definition                    Initial Value    Approx d2E/dq
    -----------------------------------------------------------------
      1. B(C   1,C   0)                  1.4979         0.420254   
      2. B(H   2,C   0)                  1.0892         0.361135   
      3. B(H   3,C   0)                  1.0944         0.354344   
      4. B(H   4,C   0)                  1.0944         0.354304   
      5. B(C   5,C   1)                  1.3317         0.773951   
      6. B(H   6,C   1)                  1.0869         0.364272   
      7. B(C   7,C   5)                  1.4979         0.420332   
      8. B(H   8,C   5)                  1.0869         0.364249   
      9. B(H   9,C   7)                  1.0944         0.354308   
     10. B(H  10,C   7)                  1.0893         0.361092   
     11. B(H  11,C   7)                  1.0944         0.354306   
     12. A(H   2,C   0,H   3)          107.8491         0.290235   
     13. A(C   1,C   0,H   2)          112.9448         0.330831   
     14. A(H   2,C   0,H   4)          107.8524         0.290230   
     15. A(H   3,C   0,H   4)          106.5098         0.289367   
     16. A(C   1,C   0,H   3)          110.7120         0.329794   
     17. A(C   1,C   0,H   4)          110.7040         0.329788   
     18. A(C   0,C   1,C   5)          127.7012         0.421261   
     19. A(C   5,C   1,H   6)          117.2785         0.367220   
     20. A(C   0,C   1,H   6)          115.0202         0.331305   
     21. A(C   7,C   5,H   8)          115.0139         0.331312   
     22. A(C   1,C   5,H   8)          117.2756         0.367216   
     23. A(C   1,C   5,C   7)          127.7106         0.421275   
     24. A(H   9,C   7,H  10)          107.8424         0.290225   
     25. A(C   5,C   7,H  10)          112.9650         0.330835   
     26. A(C   5,C   7,H   9)          110.7085         0.329799   
     27. A(H  10,C   7,H  11)          107.8380         0.290225   
     28. A(H   9,C   7,H  11)          106.5067         0.289363   
     29. A(C   5,C   7,H  11)          110.7097         0.329799   
     30. D(H   6,C   1,C   0,H   2)    179.8276         0.013059   
     31. D(C   5,C   1,C   0,H   4)    120.8577         0.013059   
     32. D(H   6,C   1,C   0,H   3)     58.7692         0.013059   
     33. D(C   5,C   1,C   0,H   2)     -0.1991         0.013059   
     34. D(C   5,C   1,C   0,H   3)   -121.2575         0.013059   
     35. D(C   7,C   5,C   1,C   0)      0.0374         0.042986   
     36. D(H   8,C   5,C   1,H   6)      0.0044         0.042986   
     37. D(H   8,C   5,C   1,C   0)   -179.9684         0.042986   
     38. D(C   7,C   5,C   1,H   6)   -179.9898         0.042986   
     39. D(H  11,C   7,C   5,C   1)    121.0739         0.013064   
     40. D(H  10,C   7,C   5,H   8)   -179.9769         0.013064   
     41. D(H  10,C   7,C   5,C   1)      0.0175         0.013064   
     42. D(H   9,C   7,C   5,H   8)     58.9619         0.013064   
     43. D(H   9,C   7,C   5,C   1)   -121.0438         0.013064   
    -----------------------------------------------------------------

Number of atoms                         .... 12
Number of degrees of freedom            .... 43


         *************************************************************
         *                GEOMETRY OPTIMIZATION CYCLE   1            *
         *************************************************************
---------------------------------
CARTESIAN COORDINATES (ANGSTROEM)
---------------------------------
  C      1.479704   -0.478417    0.162226
  C      0.023670   -0.807953    0.285624
  H      1.660076    0.573694   -0.054396
  H      1.944162   -1.069129   -0.633400
  H      2.012260   -0.726976    1.085453
  C     -1.011905    0.020685    0.165492
  H     -0.195098   -1.850983    0.498938
  C     -0.980845    1.490032   -0.123918
  H     -2.005373   -0.402489    0.289020
  H     -1.465018    2.053125    0.679976
  H      0.029853    1.878699   -0.241794
  H     -1.535827    1.715923   -1.039731

----------------------------
CARTESIAN COORDINATES (A.U.)
----------------------------
  NO LB      ZA    FRAG     MASS         X           Y           Z
   0 C     6.0000    0    12.011    2.796235   -0.904078    0.306562
   1 C     6.0000    0    12.011    0.044731   -1.526810    0.539751
   2 H     1.0000    0     1.008    3.137089    1.084124   -0.102794
   3 H     1.0000    0     1.008    3.673933   -2.020361   -1.196953
   4 H     1.0000    0     1.008    3.802621   -1.373786    2.051210
   5 C     6.0000    0    12.011   -1.912224    0.039089    0.312735
   6 H     1.0000    0     1.008   -0.368682   -3.497851    0.942855
   7 C     6.0000    0    12.011   -1.853528    2.815752   -0.234171
   8 H     1.0000    0     1.008   -3.789605   -0.760593    0.546168
   9 H     1.0000    0     1.008   -2.768482    3.879844    1.284968
  10 H     1.0000    0     1.008    0.056414    3.550227   -0.456925
  11 H     1.0000    0     1.008   -2.902292    3.242625   -1.964807

--------------------------------
INTERNAL COORDINATES (ANGSTROEM)
--------------------------------
 C      0   0   0     0.000000000000     0.00000000     0.00000000
 C      1   0   0     1.497949818181     0.00000000     0.00000000
 H      1   2   0     1.089218405141   112.94478515     0.00000000
 H      1   2   3     1.094386546252   110.71199683   238.94164270
 H      1   2   3     1.094416671555   110.70397568   121.05680953
 C      2   1   3     1.331724357258   127.70124942   359.80088251
 H      2   1   3     1.086864218314   115.02022100   179.82757500
 C      6   2   1     1.497899322481   127.71055924     0.03737462
 H      6   2   1     1.086881834703   117.27557172   180.03162313
 H      8   6   2     1.094414251942   110.70847263   238.95623319
 H      8   6   2     1.089250986278   112.96500738     0.00000000
 H      8   6   2     1.094415605334   110.70974559   121.07393839

---------------------------
INTERNAL COORDINATES (A.U.)
---------------------------
 C      0   0   0     0.000000000000     0.00000000     0.00000000
 C      1   0   0     2.830714918720     0.00000000     0.00000000
 H      1   2   0     2.058324485744   112.94478515     0.00000000
 H      1   2   3     2.068090857064   110.71199683   238.94164270
 H      1   2   3     2.068147785637   110.70397568   121.05680953
 C      2   1   3     2.516594321090   127.70124942   359.80088251
 H      2   1   3     2.053875717372   115.02022100   179.82757500
 C      6   2   1     2.830619495675   127.71055924     0.03737462
 H      6   2   1     2.053909007522   117.27557172   180.03162313
 H      8   6   2     2.068143213230   110.70847263   238.95623319
 H      8   6   2     2.058386055170   112.96500738     0.00000000
 H      8   6   2     2.068145770772   110.70974559   121.07393839

---------------------
BASIS SET INFORMATION
---------------------
There are 2 groups of distinct atoms

 Group   1 Type C   : 11s6p2d1f contracted to 5s3p2d1f pattern {62111/411/11/1}
 Group   2 Type H   : 5s1p contracted to 3s1p pattern {311/1}

Atom   0C    basis set group =>   1
Atom   1C    basis set group =>   1
Atom   2H    basis set group =>   2
Atom   3H    basis set group =>   2
Atom   4H    basis set group =>   2
Atom   5C    basis set group =>   1
Atom   6H    basis set group =>   2
Atom   7C    basis set group =>   1
Atom   8H    basis set group =>   2
Atom   9H    basis set group =>   2
Atom  10H    basis set group =>   2
Atom  11H    basis set group =>   2
---------------------------------
AUXILIARY/J BASIS SET INFORMATION
---------------------------------
There are 2 groups of distinct atoms

 Group   1 Type C   : 12s5p4d2f1g contracted to 6s4p3d1f1g pattern {711111/2111/211/2/1}
 Group   2 Type H   : 5s2p1d contracted to 3s1p1d pattern {311/2/1}

Atom   0C    basis set group =>   1
Atom   1C    basis set group =>   1
Atom   2H    basis set group =>   2
Atom   3H    basis set group =>   2
Atom   4H    basis set group =>   2
Atom   5C    basis set group =>   1
Atom   6H    basis set group =>   2
Atom   7C    basis set group =>   1
Atom   8H    basis set group =>   2
Atom   9H    basis set group =>   2
Atom  10H    basis set group =>   2
Atom  11H    basis set group =>   2


           ************************************************************
           *        Program running with 4 parallel MPI-processes     *
           *              working on a common directory               *
           ************************************************************
------------------------------------------------------------------------------
                             ORCA STARTUP CALCULATIONS
                           -- RI-GTO INTEGRALS CHOSEN --
------------------------------------------------------------------------------
------------------------------------------------------------------------------
                   ___                                                        
                  /   \      - P O W E R E D   B Y -                         
                 /     \                                                     
                 |  |  |   _    _      __       _____    __    __             
                 |  |  |  | |  | |    /  \     |  _  \  |  |  /  |          
                  \  \/   | |  | |   /    \    | | | |  |  | /  /          
                 / \  \   | |__| |  /  /\  \   | |_| |  |  |/  /          
                |  |  |   |  __  | /  /__\  \  |    /   |      \           
                |  |  |   | |  | | |   __   |  |    \   |  |\   \          
                \     /   | |  | | |  |  |  |  | |\  \  |  | \   \       
                 \___/    |_|  |_| |__|  |__|  |_| \__\ |__|  \__/        
                                                                              
                      - O R C A' S   B I G   F R I E N D -                    
                                      &                                       
                       - I N T E G R A L  F E E D E R -                       
                                                                              
 v1 FN, 2020, v2 2021, v3 2022-2024                                           
------------------------------------------------------------------------------


----------------------
SHARK INTEGRAL PACKAGE
----------------------

Number of atoms                             ...     12
Number of basis functions                   ...    172
Number of shells                            ...     76
Maximum angular momentum                    ...      3
Integral batch strategy                     ... SHARK/LIBINT Hybrid
RI-J (if used) integral strategy            ... SPLIT-RIJ (Revised 2003 algorithm where possible)
Printlevel                                  ...      1
Contraction scheme used                     ... SEGMENTED contraction
Prescreening option                         ... SCHWARTZ
   Thresh                                   ... 2.500e-11
   Tcut                                     ... 2.500e-12
   Tpresel                                  ... 2.500e-12 
Coulomb Range Separation                    ... NOT USED
Exchange Range Separation                   ... NOT USED
Multipole approximations                    ... NOT USED
Finite Nucleus Model                        ... NOT USED
CABS basis                                  ... NOT available
Auxiliary Coulomb fitting basis             ... AVAILABLE
   # of basis functions in Aux-J            ...    284
   # of shells in Aux-J                     ...    100
   Maximum angular momentum in Aux-J        ...      4
Auxiliary J/K fitting basis                 ... NOT available
Auxiliary Correlation fitting basis         ... NOT available
Auxiliary 'external' fitting basis          ... NOT available

Checking pre-screening integrals            ... done (  0.0 sec) Dimension = 76
Check shell pair data                       ... done (  0.0 sec)
Shell pair information
Shell pair cut-off parameter TPreSel        ...   2.5e-12
Total number of shell pairs                 ...      2926
Shell pairs after pre-screening             ...      2843
Total number of primitive shell pairs       ...      8368
Primitive shell pairs kept                  ...      6636
          la=0 lb=0:    941 shell pairs
          la=1 lb=0:    854 shell pairs
          la=1 lb=1:    208 shell pairs
          la=2 lb=0:    346 shell pairs
          la=2 lb=1:    160 shell pairs
          la=2 lb=2:     36 shell pairs
          la=3 lb=0:    176 shell pairs
          la=3 lb=1:     80 shell pairs
          la=3 lb=2:     32 shell pairs
          la=3 lb=3:     10 shell pairs

Calculating one electron integrals          ... done (  0.0 sec)
Calculating RI/J V-Matrix + Cholesky decomp.... done (  0.0 sec)
Calculating Nuclear repulsion               ... done (  0.0 sec) ENN=    117.713386952168 Eh

Diagonalization of the overlap matrix:
Smallest eigenvalue                        ... 1.213e-04
Time for diagonalization                   ...    0.011 sec
Threshold for overlap eigenvalues          ... 1.000e-07
Number of eigenvalues below threshold      ... 0
Time for construction of square roots      ...    0.010 sec
Total time needed                          ...    0.035 sec

-------------------
DFT GRID GENERATION
-------------------

General Integration Accuracy     IntAcc      ... 4.388
Radial Grid Type                 RadialGrid  ... OptM3 with GC (2021)
Angular Grid (max. ang.)         AngularGrid ... 4 (Lebedev-302)
Angular grid pruning method      GridPruning ... 4 (adaptive)
Weight generation scheme         WeightScheme... mBecke (2022)
Basis function cutoff            BFCut       ... 1.0000e-11
Integration weight cutoff        WCut        ... 1.0000e-14
Partially contracted basis set               ... off
Rotationally invariant grid construction     ... off
Angular grids for H and He will be reduced by one unit

Total number of grid points                  ...    50067
Total number of batches                      ...      790
Average number of points per batch           ...       63
Average number of grid points per atom       ...     4172

--------------------
COSX GRID GENERATION
--------------------

GRIDX 1
-------
General Integration Accuracy     IntAcc      ... 3.816
Radial Grid Type                 RadialGrid  ... OptM3 with GC (2021)
Angular Grid (max. ang.)         AngularGrid ... 1 (Lebedev-50)
Angular grid pruning method      GridPruning ... 4 (adaptive)
Weight generation scheme         WeightScheme... mBecke (2022)
Basis function cutoff            BFCut       ... 1.0000e-11
Integration weight cutoff        WCut        ... 1.0000e-14
Partially contracted basis set               ... on
Rotationally invariant grid construction     ... off
Angular grids for H and He will be reduced by one unit

Total number of grid points                  ...     6482
Total number of batches                      ...       57
Average number of points per batch           ...      113
Average number of grid points per atom       ...      540
UseSFitting                                  ... on

GRIDX 2
-------
General Integration Accuracy     IntAcc      ... 4.020
Radial Grid Type                 RadialGrid  ... OptM3 with GC (2021)
Angular Grid (max. ang.)         AngularGrid ... 2 (Lebedev-110)
Angular grid pruning method      GridPruning ... 4 (adaptive)
Weight generation scheme         WeightScheme... mBecke (2022)
Basis function cutoff            BFCut       ... 1.0000e-11
Integration weight cutoff        WCut        ... 1.0000e-14
Partially contracted basis set               ... on
Rotationally invariant grid construction     ... off
Angular grids for H and He will be reduced by one unit

Total number of grid points                  ...    13494
Total number of batches                      ...      114
Average number of points per batch           ...      118
Average number of grid points per atom       ...     1124
UseSFitting                                  ... on

GRIDX 3
-------
General Integration Accuracy     IntAcc      ... 4.338
Radial Grid Type                 RadialGrid  ... OptM3 with GC (2021)
Angular Grid (max. ang.)         AngularGrid ... 3 (Lebedev-194)
Angular grid pruning method      GridPruning ... 4 (adaptive)
Weight generation scheme         WeightScheme... mBecke (2022)
Basis function cutoff            BFCut       ... 1.0000e-11
Integration weight cutoff        WCut        ... 1.0000e-14
Partially contracted basis set               ... on
Rotationally invariant grid construction     ... off
Angular grids for H and He will be reduced by one unit

Total number of grid points                  ...    29515
Total number of batches                      ...      238
Average number of points per batch           ...      124
Average number of grid points per atom       ...     2460
UseSFitting                                  ... on
Initializing property integral containers    ... done (  0.0 sec)

SHARK setup successfully completed in   2.1 seconds

Maximum memory used throughout the entire STARTUP-calculation: 16.7 MB


           ************************************************************
           *        Program running with 4 parallel MPI-processes     *
           *              working on a common directory               *
           ************************************************************
-------------------------------------------------------------------------------
                                 ORCA GUESS
                   Start orbitals & Density for SCF / CASSCF
-------------------------------------------------------------------------------

------------
SCF SETTINGS
------------
Hamiltonian:
 Density Functional     Method          .... DFT(GTOs)
 Exchange Functional    Exchange        .... B88
   X-Alpha parameter    XAlpha          ....  0.666667
   Becke's b parameter  XBeta           ....  0.004200
 Correlation Functional Correlation     .... LYP
 LDA part of GGA corr.  LDAOpt          .... VWN-5
 Gradients option       PostSCFGGA      .... off
 Hybrid DFT is turned on
   Fraction HF Exchange ScalHFX         ....  0.200000
   Scaling of DF-GGA-X  ScalDFX         ....  0.720000
   Scaling of DF-GGA-C  ScalDFC         ....  0.810000
   Scaling of DF-LDA-C  ScalLDAC        ....  1.000000
   Perturbative correction              ....  0.000000
   NL short-range parameter             ....  4.800000
 RI-approximation to the Coulomb term is turned on
   Number of AuxJ basis functions       .... 284
   RIJ-COSX (HFX calculated with COS-X)).... on


General Settings:
 Integral files         IntName         .... cis
 Hartree-Fock type      HFTyp           .... RHF
 Total Charge           Charge          ....    0
 Multiplicity           Mult            ....    1
 Number of Electrons    NEL             ....   32
 Basis Dimension        Dim             ....  172
 Nuclear Repulsion      ENuc            ....    117.7133869522 Eh

Convergence Acceleration:
 AO-DIIS                CNVDIIS         .... on
   Start iteration      DIISMaxIt       ....    12
   Startup error        DIISStart       ....  0.200000
   # of expansion vecs  DIISMaxEq       ....     5
   Bias factor          DIISBfac        ....   1.050
   Max. coefficient     DIISMaxC        ....  10.000
 MO-DIIS                CNVKDIIS        .... off
 Trust-Rad. Augm. Hess. CNVTRAH         .... auto
   Auto Start mean grad. ratio tolernc. ....  1.125000
   Auto Start start iteration           ....    50
   Auto Start num. interpolation iter.  ....    10
   Max. Number of Micro iterations      ....    24
   Max. Number of Macro iterations      .... Maxiter - #DIIS iter
   Number of Davidson start vectors     ....     2
   Converg. threshold    (grad. norm)   ....   1.000e-05
   Grad. Scal. Fac. for Micro threshold ....   0.100
   Minimum threshold for Micro iter.    ....   1.000e-02
   NR start threshold (gradient norm)   ....   1.000e-04
   Initial trust radius                 ....   0.400
   Minimum AH scaling param. (alpha)    ....   1.000
   Maximum AH scaling param. (alpha)    .... 1000.000
   Quad. conv. algorithm                .... NR
   White noise on init. David. guess    .... on
   Maximum white noise                  ....   0.010
   Pseudo random numbers                .... off
   Inactive MOs                         .... canonical
   Orbital update algorithm             .... Taylor
   Preconditioner                       .... Diag
   Full preconditioner red. dimension   ....   250
 SOSCF                  CNVSOSCF        .... on
   Start iteration      SOSCFMaxIt      ....   150
   Startup grad/error   SOSCFStart      ....  0.003300
   Hessian update       SOSCFHessUp     .... L-BFGS
 Level Shifting         CNVShift        .... on
   Level shift para.    LevelShift      ....    0.2500
   Turn off err/grad.   ShiftErr        ....    0.0010
 Zerner damping         CNVZerner       .... off
 Static damping         CNVDamp         .... on
   Fraction old density DampFac         ....    0.7000
   Max. Damping (<1)    DampMax         ....    0.9800
   Min. Damping (>=0)   DampMin         ....    0.0000
   Turn off err/grad.   DampErr         ....    0.1000

SCF Procedure:
 Maximum # iterations   MaxIter         ....   125
 SCF integral mode      SCFMode         .... Direct
   Integral package                     .... SHARK and LIBINT hybrid scheme
 Reset frequency        DirectResetFreq ....    20
 Integral Threshold     Thresh          ....  2.500e-11 Eh
 Primitive CutOff       TCut            ....  2.500e-12 Eh

Convergence Tolerance:
 Convergence Check Mode ConvCheckMode   .... Total+1el-Energy
 Convergence forced     ConvForced      .... 0
 Energy Change          TolE            ....  1.000e-08 Eh
 1-El. energy change                    ....  1.000e-05 Eh
 Orbital Gradient       TolG            ....  1.000e-05
 Orbital Rotation angle TolX            ....  1.000e-05
 DIIS Error             TolErr          ....  5.000e-07

------------------------------
INITIAL GUESS: MODEL POTENTIAL
------------------------------
Loading Hartree-Fock densities                     ... done
Calculating cut-offs                               ... done
Initializing the effective Hamiltonian             ... done
Setting up the integral package (SHARK)            ... done
Starting the Coulomb interaction                   ... done (   0.1 sec)
Making the grid                                    ... done (   0.2 sec)
Mapping shells                                     ... done
Starting the XC term evaluation                    ... done (   0.1 sec)
  promolecular density results
     # of electrons  =     31.998799126
     EX              =    -22.915236703
     EC              =     -1.005997728
     EX+EC           =    -23.921234431
Transforming the Hamiltonian                       ... done (   0.0 sec)
Diagonalizing the Hamiltonian                      ... done (   0.0 sec)
Back transforming the eigenvectors                 ... done (   0.0 sec)
Now organizing SCF variables                       ... done
                      ------------------
                      INITIAL GUESS DONE (   0.4 sec)
                      ------------------
             **** ENERGY FILE WAS UPDATED (cis.en.tmp) ****
Finished Guess after   1.0 sec
Maximum memory used throughout the entire GUESS-calculation: 10.9 MB


           ************************************************************
           *        Program running with 4 parallel MPI-processes     *
           *              working on a common directory               *
           ************************************************************

-------------------------------------------------------------------------------------------
                                      ORCA LEAN-SCF
                              memory conserving SCF solver
-------------------------------------------------------------------------------------------

----------------------------------------D-I-I-S--------------------------------------------
Iteration    Energy (Eh)           Delta-E    RMSDP     MaxDP     DIISErr   Damp  Time(sec)
-------------------------------------------------------------------------------------------
               ***  Starting incremental Fock matrix formation  ***
    1    -156.9937779216508034     0.00e+00  1.67e-03  3.77e-02  1.97e-01  0.700   2.5
    2    -157.0764720450562777    -8.27e-02  1.23e-03  2.32e-02  1.03e-01  0.700   1.7
                               ***Turning on AO-DIIS***
    3    -157.1105648065474725    -3.41e-02  5.21e-04  7.72e-03  3.94e-02  0.700   1.6
    4    -157.1299636725545952    -1.94e-02  8.20e-04  1.13e-02  1.93e-02  0.000   1.6
    5    -157.1718953467934625    -4.19e-02  2.37e-04  4.96e-03  6.85e-03  0.000   1.6
                              *** Initializing SOSCF ***
---------------------------------------S-O-S-C-F--------------------------------------
Iteration    Energy (Eh)           Delta-E    RMSDP     MaxDP     MaxGrad    Time(sec)
--------------------------------------------------------------------------------------
    6    -157.1721685583056001    -2.73e-04  1.15e-04  2.76e-03  1.55e-03     1.6
               *** Restarting incremental Fock matrix formation ***
    7    -157.1721859803814709    -1.74e-05  8.24e-05  2.03e-03  2.30e-04     2.5
    8    -157.1721866586916576    -6.78e-07  1.28e-05  2.67e-04  1.41e-04     2.1
    9    -157.1721871605372485    -5.02e-07  8.65e-06  2.10e-04  3.63e-05     1.9
   10    -157.1721871805698925    -2.00e-08  1.26e-06  2.56e-05  1.35e-05     1.9
   11    -157.1721871861768705    -5.61e-09  6.12e-07  1.31e-05  1.67e-06     1.8
                 **** Energy Check signals convergence ****

               *****************************************************
               *                     SUCCESS                       *
               *           SCF CONVERGED AFTER  11 CYCLES          *
               *****************************************************

Recomputing exchange energy using gridx3       ... done (    3.459 sec)
Old exchange energy                            :     -4.713102224 Eh
New exchange energy                            :     -4.713106240 Eh
Exchange energy change after final integration :     -0.000004016 Eh
Total energy after final integration           :   -157.172191202 Eh
             **** ENERGY FILE WAS UPDATED (cis.en.tmp) ****

----------------
TOTAL SCF ENERGY
----------------

Total Energy       :       -157.17219120212775 Eh           -4276.87275 eV

Components:
Nuclear Repulsion  :        117.71338695216828 Eh            3203.14410 eV
Electronic Energy  :       -274.88557413834519 Eh           -7480.01675 eV
One Electron Energy:       -442.76397618909868 Eh          -12048.22031 eV
Two Electron Energy:        167.87840205075352 Eh            4568.20356 eV

Virial components:
Potential Energy   :       -313.55056217656590 Eh           -8532.14456 eV
Kinetic Energy     :        156.37837097443816 Eh            4255.27181 eV
Virial Ratio       :          2.00507627891724

DFT components:
N(Alpha)           :       15.999982123393 electrons
N(Beta)            :       15.999982123393 electrons
N(Total)           :       31.999964246786 electrons
E(X)               :      -18.683733323383 Eh       
E(C)               :       -1.201304988253 Eh       
E(XC)              :      -19.885038311636 Eh       

---------------
SCF CONVERGENCE
---------------

  Last Energy change         ...    5.6070e-09  Tolerance :   1.0000e-08
  Last MAX-Density change    ...    1.3142e-05  Tolerance :   1.0000e-07
  Last RMS-Density change    ...    6.1169e-07  Tolerance :   5.0000e-09
  Last DIIS Error            ...    1.5543e-03  Tolerance :   5.0000e-07
  Last Orbital Gradient      ...    1.6698e-06  Tolerance :   1.0000e-05
  Last Orbital Rotation      ...    2.8969e-06  Tolerance :   1.0000e-05


----------------
ORBITAL ENERGIES
----------------

  NO   OCC          E(Eh)            E(eV) 
   0   2.0000     -10.162656      -276.5399 
   1   2.0000     -10.161791      -276.5164 
   2   2.0000     -10.160697      -276.4866 
   3   2.0000     -10.160694      -276.4865 
   4   2.0000      -0.794992       -21.6328 
   5   2.0000      -0.721229       -19.6256 
   6   2.0000      -0.653801       -17.7908 
   7   2.0000      -0.523255       -14.2385 
   8   2.0000      -0.477655       -12.9977 
   9   2.0000      -0.416359       -11.3297 
  10   2.0000      -0.413840       -11.2612 
  11   2.0000      -0.400278       -10.8921 
  12   2.0000      -0.383556       -10.4371 
  13   2.0000      -0.362152        -9.8547 
  14   2.0000      -0.330728        -8.9996 
  15   2.0000      -0.242849        -6.6083 
  16   0.0000       0.023253         0.6327 
  17   0.0000       0.042652         1.1606 
  18   0.0000       0.070483         1.9179 
  19   0.0000       0.073307         1.9948 
  20   0.0000       0.110973         3.0197 
  21   0.0000       0.114594         3.1183 
  22   0.0000       0.117309         3.1921 
  23   0.0000       0.125157         3.4057 
  24   0.0000       0.158181         4.3043 
  25   0.0000       0.167060         4.5459 
  26   0.0000       0.185842         5.0570 
*Only the first 10 virtual orbitals were printed.

                    ********************************
                    * MULLIKEN POPULATION ANALYSIS *
                    ********************************

-----------------------
MULLIKEN ATOMIC CHARGES
-----------------------
   0 C :   -0.300136
   1 C :   -0.113620
   2 H :    0.095946
   3 H :    0.111132
   4 H :    0.111220
   5 C :   -0.113180
   6 H :    0.095310
   7 C :   -0.300784
   8 H :    0.095437
   9 H :    0.111278
  10 H :    0.096144
  11 H :    0.111253
Sum of atomic charges:   -0.0000000

--------------------------------
MULLIKEN REDUCED ORBITAL CHARGES
--------------------------------
  0 C s       :     3.268823  s :     3.268823
      pz      :     1.024596  p :     2.981421
      px      :     0.925369
      py      :     1.031456
      dz2     :     0.003734  d :     0.046428
      dxz     :     0.020906
      dyz     :     0.002138
      dx2y2   :     0.007042
      dxy     :     0.012609
      f0      :     0.000327  f :     0.003463
      f+1     :     0.000658
      f-1     :     0.000351
      f+2     :     0.000566
      f-2     :     0.000014
      f+3     :     0.000638
      f-3     :     0.000909

  1 C s       :     3.203437  s :     3.203437
      pz      :     0.980616  p :     2.814509
      px      :     0.877627
      py      :     0.956266
      dz2     :     0.003967  d :     0.088688
      dxz     :     0.026559
      dyz     :     0.004941
      dx2y2   :     0.036927
      dxy     :     0.016293
      f0      :     0.001237  f :     0.006986
      f+1     :     0.000603
      f-1     :     0.000464
      f+2     :     0.000632
      f-2     :     0.000804
      f+3     :     0.001758
      f-3     :     0.001488

  2 H s       :     0.881858  s :     0.881858
      pz      :     0.004782  p :     0.022197
      px      :     0.004938
      py      :     0.012477

  3 H s       :     0.867428  s :     0.867428
      pz      :     0.008709  p :     0.021440
      px      :     0.006199
      py      :     0.006531

  4 H s       :     0.867338  s :     0.867338
      pz      :     0.010027  p :     0.021442
      px      :     0.006681
      py      :     0.004734

  5 C s       :     3.202999  s :     3.202999
      pz      :     0.978094  p :     2.814529
      px      :     0.954143
      py      :     0.882291
      dz2     :     0.005585  d :     0.088667
      dxz     :     0.008402
      dyz     :     0.021679
      dx2y2   :     0.032574
      dxy     :     0.020427
      f0      :     0.001195  f :     0.006985
      f+1     :     0.000384
      f-1     :     0.000761
      f+2     :     0.000741
      f-2     :     0.000703
      f+3     :     0.001902
      f-3     :     0.001299

  6 H s       :     0.882451  s :     0.882451
      pz      :     0.005407  p :     0.022239
      px      :     0.004151
      py      :     0.012681

  7 C s       :     3.269280  s :     3.269280
      pz      :     1.020765  p :     2.981597
      px      :     1.045277
      py      :     0.915556
      dz2     :     0.005259  d :     0.046443
      dxz     :     0.003923
      dyz     :     0.017776
      dx2y2   :     0.004978
      dxy     :     0.014507
      f0      :     0.000230  f :     0.003464
      f+1     :     0.000667
      f-1     :     0.000466
      f+2     :     0.000579
      f-2     :     0.000037
      f+3     :     0.000716
      f-3     :     0.000770

  8 H s       :     0.882325  s :     0.882325
      pz      :     0.005164  p :     0.022238
      px      :     0.011705
      py      :     0.005369

  9 H s       :     0.867283  s :     0.867283
      pz      :     0.008644  p :     0.021440
      px      :     0.005895
      py      :     0.006901

 10 H s       :     0.881662  s :     0.881662
      pz      :     0.004555  p :     0.022194
      px      :     0.011762
      py      :     0.005877

 11 H s       :     0.867304  s :     0.867304
      pz      :     0.010119  p :     0.021443
      px      :     0.006369
      py      :     0.004955



                     *******************************
                     * LOEWDIN POPULATION ANALYSIS *
                     *******************************

----------------------
LOEWDIN ATOMIC CHARGES
----------------------
   0 C :   -0.292394
   1 C :   -0.211908
   2 H :    0.117563
   3 H :    0.124605
   4 H :    0.124654
   5 C :   -0.211918
   6 H :    0.137482
   7 C :   -0.292442
   8 H :    0.137500
   9 H :    0.124644
  10 H :    0.117574
  11 H :    0.124640

-------------------------------
LOEWDIN REDUCED ORBITAL CHARGES
-------------------------------
  0 C s       :     2.824227  s :     2.824227
      pz      :     1.065677  p :     3.181795
      px      :     1.049306
      py      :     1.066812
      dz2     :     0.030760  d :     0.260633
      dxz     :     0.084926
      dyz     :     0.022373
      dx2y2   :     0.063778
      dxy     :     0.058796
      f0      :     0.002369  f :     0.025738
      f+1     :     0.004347
      f-1     :     0.002486
      f+2     :     0.002777
      f-2     :     0.003582
      f+3     :     0.003884
      f-3     :     0.006294

  1 C s       :     2.789842  s :     2.789842
      pz      :     0.908884  p :     2.985079
      px      :     1.061102
      py      :     1.015092
      dz2     :     0.023833  d :     0.396123
      dxz     :     0.085650
      dyz     :     0.017079
      dx2y2   :     0.165554
      dxy     :     0.104008
      f0      :     0.003434  f :     0.040864
      f+1     :     0.004708
      f-1     :     0.002636
      f+2     :     0.003254
      f-2     :     0.005206
      f+3     :     0.011588
      f-3     :     0.010038

  2 H s       :     0.821293  s :     0.821293
      pz      :     0.014136  p :     0.061145
      px      :     0.013078
      py      :     0.033931

  3 H s       :     0.815357  s :     0.815357
      pz      :     0.024652  p :     0.060038
      px      :     0.015893
      py      :     0.019493

  4 H s       :     0.815307  s :     0.815307
      pz      :     0.028597  p :     0.060039
      px      :     0.017038
      py      :     0.014404

  5 C s       :     2.789832  s :     2.789832
      pz      :     0.909603  p :     2.985072
      px      :     1.038631
      py      :     1.036838
      dz2     :     0.028759  d :     0.396147
      dxz     :     0.025004
      dyz     :     0.074021
      dx2y2   :     0.146337
      dxy     :     0.122026
      f0      :     0.003208  f :     0.040866
      f+1     :     0.003369
      f-1     :     0.004425
      f+2     :     0.004157
      f-2     :     0.004316
      f+3     :     0.012793
      f-3     :     0.008599

  6 H s       :     0.804063  s :     0.804063
      pz      :     0.014806  p :     0.058455
      px      :     0.012524
      py      :     0.031124

  7 C s       :     2.824230  s :     2.824230
      pz      :     1.065196  p :     3.181811
      px      :     1.064301
      py      :     1.052314
      dz2     :     0.035283  d :     0.260662
      dxz     :     0.031723
      dyz     :     0.071892
      dx2y2   :     0.052052
      dxy     :     0.069711
      f0      :     0.001972  f :     0.025739
      f+1     :     0.003331
      f-1     :     0.004172
      f+2     :     0.003372
      f-2     :     0.002995
      f+3     :     0.005561
      f-3     :     0.004336

  8 H s       :     0.804048  s :     0.804048
      pz      :     0.014281  p :     0.058451
      px      :     0.028774
      py      :     0.015396

  9 H s       :     0.815319  s :     0.815319
      pz      :     0.025010  p :     0.060037
      px      :     0.017431
      py      :     0.017597

 10 H s       :     0.821285  s :     0.821285
      pz      :     0.013481  p :     0.061141
      px      :     0.032722
      py      :     0.014938

 11 H s       :     0.815323  s :     0.815323
      pz      :     0.028149  p :     0.060037
      px      :     0.018722
      py      :     0.013166



                      *****************************
                      * MAYER POPULATION ANALYSIS *
                      *****************************

  NA   - Mulliken gross atomic population
  ZA   - Total nuclear charge
  QA   - Mulliken gross atomic charge
  VA   - Mayer's total valence
  BVA  - Mayer's bonded valence
  FA   - Mayer's free valence

  ATOM       NA         ZA         QA         VA         BVA        FA
  0 C      6.3001     6.0000    -0.3001     3.8806     3.8806    -0.0000
  1 C      6.1136     6.0000    -0.1136     3.8710     3.8710    -0.0000
  2 H      0.9041     1.0000     0.0959     0.9852     0.9852    -0.0000
  3 H      0.8889     1.0000     0.1111     0.9623     0.9623     0.0000
  4 H      0.8888     1.0000     0.1112     0.9622     0.9622     0.0000
  5 C      6.1132     6.0000    -0.1132     3.8705     3.8705    -0.0000
  6 H      0.9047     1.0000     0.0953     0.9690     0.9690     0.0000
  7 C      6.3008     6.0000    -0.3008     3.8806     3.8806     0.0000
  8 H      0.9046     1.0000     0.0954     0.9689     0.9689     0.0000
  9 H      0.8887     1.0000     0.1113     0.9622     0.9622     0.0000
 10 H      0.9039     1.0000     0.0961     0.9851     0.9851     0.0000
 11 H      0.8887     1.0000     0.1113     0.9622     0.9622     0.0000

  Mayer bond orders larger than 0.100000
B(  0-C ,  1-C ) :   0.9532 B(  0-C ,  2-H ) :   0.9843 B(  0-C ,  3-H ) :   0.9645 
B(  0-C ,  4-H ) :   0.9644 B(  1-C ,  5-C ) :   1.9276 B(  1-C ,  6-H ) :   0.9571 
B(  5-C ,  7-C ) :   0.9530 B(  5-C ,  8-H ) :   0.9571 B(  7-C ,  9-H ) :   0.9645 
B(  7-C , 10-H ) :   0.9843 B(  7-C , 11-H ) :   0.9645 

-------
TIMINGS
-------

Total SCF time: 0 days 0 hours 0 min 25 sec 

Total time                  ....      25.089 sec
Sum of individual times     ....      24.823 sec  ( 98.9%)

SCF preparation             ....       0.610 sec  (  2.4%)
Fock matrix formation       ....      23.281 sec  ( 92.8%)
  Startup                   ....       0.064 sec  (  0.3% of F)
  Split-RI-J                ....       1.465 sec  (  6.3% of F)
  Chain of spheres X        ....      16.470 sec  ( 70.7% of F)
  XC integration            ....       5.017 sec  ( 21.6% of F)
    XC Preparation          ....       0.000 sec  (  0.0% of XC)
    Basis function eval.    ....       1.466 sec  ( 29.2% of XC)
    Density eval.           ....       1.367 sec  ( 27.2% of XC)
    XC-Functional eval.     ....       0.196 sec  (  3.9% of XC)
    XC-Potential eval.      ....       1.313 sec  ( 26.2% of XC)
Diagonalization             ....       0.000 sec  (  0.0%)
Density matrix formation    ....       0.170 sec  (  0.7%)
Total Energy calculation    ....       0.076 sec  (  0.3%)
Population analysis         ....       0.036 sec  (  0.1%)
Orbital Transformation      ....       0.069 sec  (  0.3%)
Orbital Orthonormalization  ....       0.000 sec  (  0.0%)
DIIS solution               ....       0.405 sec  (  1.6%)
SOSCF solution              ....       0.175 sec  (  0.7%)
Finished LeanSCF after  25.1 sec

Maximum memory used throughout the entire LEANSCF-calculation: 16.0 MB


           ************************************************************
           *        Program running with 4 parallel MPI-processes     *
           *              working on a common directory               *
           ************************************************************

------------------------------------------------------------------------------
                         ORCA PROPERTY INTEGRAL CALCULATIONS
------------------------------------------------------------------------------

GBWName                                   ... cis.gbw
Number of atoms                           ...     12
Number of basis functions                 ...    172
Max core memory                           ...   1800 MB

Dipole integrals                          ... YES
Quadrupole integrals                      ...  NO
Linear momentum integrals                 ...  NO
Angular momentum integrals                ...  NO
Higher moments length integrals           ...  NO
Higher moments velocity integrals         ...  NO
Kinetic energy integrals                  ...  NO
GIAO right hand sides                     ...  NO
GIAO dipole derivative integrals          ...  NO
SOC integrals                             ...  NO
EPR diamagnetic integrals (GIAO)          ...  NO
EPR gauge integrals                       ...  NO
Field gradient integrals                  ...  NO (   0 nuclei)
Spin-dipole/Fermi contact integrals       ...  NO (   0 nuclei)
Contact density integrals                 ...  NO (   0 nuclei)
Nucleus-orbit integrals                   ...  NO (   0 nuclei)
Geometric perturbations                   ...  NO (  12 nuclei)

Choice of electric origin   ... Center of mass
Position of electric origin ... ( -0.1829,  0.1645,  0.2178) 
Choice of magnetic origin   ... GIAO
Position of magnetic origin ... (  0.0000,  0.0000,  0.0000) 

Calculating integrals                     ... Electric Dipole (Length)     done (  0.0 sec)

Property integrals calculated in   0.0 sec

Maximum memory used throughout the entire PROPINT-calculation: 11.3 MB


-------------------------------------------------------------------------------
                          DFT DISPERSION CORRECTION                            
                                                                               
                                DFTD4 V3.4.0                                   
-------------------------------------------------------------------------------
The B3LYP functional is recognized
Active option DFTDOPT                   ...         5   

-------------------------   ----------------
Dispersion correction           -0.010959911
-------------------------   ----------------


-------------------------   --------------------
FINAL SINGLE POINT ENERGY      -157.183151113166
-------------------------   --------------------



           ************************************************************
           *        Program running with 4 parallel MPI-processes     *
           *              working on a common directory               *
           ************************************************************
------------------------------------------------------------------------------
                         ORCA SCF GRADIENT CALCULATION
------------------------------------------------------------------------------

Nuc. rep. gradient        (SHARK) ... done (  0.0 sec)
HCore & Overlap gradient  (SHARK) ... done (  0.1 sec)
Split-RIJ-J gradient      (SHARK) ... done (  0.7 sec)
COSX-gradient                     ... done ( 14.6 sec)
XC gradient                       ... done (  3.5 sec)
Dispersion correction             ... done (  0.1 sec)

-------------------
DISPERSION GRADIENT
-------------------

   1   C   :    0.000468848   -0.000179861    0.000016262
   2   C   :    0.000056226   -0.000293029    0.000055128
   3   H   :    0.000134455   -0.000043205    0.000002926
   4   H   :    0.000114102   -0.000053468   -0.000019758
   5   H   :    0.000116314   -0.000043852    0.000029652
   6   C   :   -0.000303036   -0.000005577    0.000013370
   7   H   :   -0.000007532   -0.000092574    0.000018428
   8   C   :   -0.000274567    0.000414877   -0.000070234
   9   H   :   -0.000090587   -0.000026113    0.000008805
  10   H   :   -0.000070924    0.000105890    0.000007833
  11   H   :   -0.000070373    0.000120742   -0.000020845
  12   H   :   -0.000072925    0.000096171   -0.000041568

Difference to translation invariance:
           :    0.0000000000    0.0000000000    0.0000000000

Difference to rotation invariance:
           :   -0.0000000000   -0.0000000000   -0.0000000000

Norm of the Dispersion gradient    ...    0.0009011286
RMS gradient                       ...    0.0001501881
MAX gradient                       ...    0.0004688479

------------------
CARTESIAN GRADIENT
------------------

   1   C   :    0.000025728   -0.000008345    0.000007040
   2   C   :   -0.000006974    0.000001846   -0.000020031
   3   H   :   -0.000024837    0.000005957   -0.000001742
   4   H   :    0.000005698   -0.000010423    0.000013448
   5   H   :    0.000002802   -0.000015754   -0.000004918
   6   C   :    0.000008528   -0.000001152    0.000014574
   7   H   :    0.000032021   -0.000017922   -0.000006941
   8   C   :   -0.000008533    0.000024582   -0.000008736
   9   H   :   -0.000024959    0.000032721   -0.000002338
  10   H   :   -0.000019197   -0.000000826   -0.000011209
  11   H   :    0.000015609   -0.000020589    0.000015615
  12   H   :   -0.000005885    0.000009906    0.000005238

Difference to translation invariance:
           :   -0.0000000000    0.0000000000    0.0000000000

Difference to rotation invariance:
           :    0.0000711466   -0.0000538972   -0.0000813786

Norm of the Cartesian gradient     ...    0.0000905096
RMS gradient                       ...    0.0000150849
MAX gradient                       ...    0.0000327211

-------
TIMINGS
-------

Total SCF gradient time     ....       19.056 sec

Densities                   ....       0.001 sec  (  0.0%)
One electron gradient       ....       0.115 sec  (  0.6%)
RI-J Coulomb gradient       ....       0.671 sec  (  3.5%)
COSX gradient               ....      14.635 sec  ( 76.8%)
XC gradient                 ....       3.534 sec  ( 18.5%)

Maximum memory used throughout the entire SCFGRAD-calculation: 29.7 MB
------------------------------------------------------------------------------
                         ORCA GEOMETRY RELAXATION STEP
------------------------------------------------------------------------------

Reading the OPT-File                    .... done
Getting information on internals        .... done
Copying old internal coords+grads       .... done
Making the new internal coordinates     .... (2022 redundants) done
Validating the new internal coordinates .... (2022 redundants) done
Calculating the B-matrix                .... done
Calculating the G,G- and P matrices     .... done
Transforming gradient to internals      .... done
Projecting the internal gradient        .... done
Number of atoms                         ....  12
Number of internal coordinates          ....  43
Current Energy                          ....  -157.183151113 Eh
Current gradient norm                   ....     0.000090510 Eh/bohr
Maximum allowed component of the step   ....  0.300
Current trust radius                    ....  0.300
Evaluating the initial hessian          ....  (Almloef) done
Projecting the Hessian                  .... done
Forming the augmented Hessian           .... done
Diagonalizing the augmented Hessian     .... done
Last element of RFO vector              ....  0.999998880
Lowest eigenvalues of augmented Hessian:
 -0.000000064  0.013059154  0.013063877  0.026896042  0.026898924
Length of the computed step             ....  0.001496714
The final length of the internal step   ....  0.001496714
Converting the step to Cartesian space:
 Initial RMS(Int)=    0.0002282467
Transforming coordinates:
 Iter   0:  RMS(Cart)=    0.0003444431 RMS(Int)=    0.0002282496
done
Storing new coordinates                 .... done

                                .--------------------.
          ----------------------|Geometry convergence|-------------------------
          Item                value                   Tolerance       Converged
          ---------------------------------------------------------------------
          RMS gradient        0.0000180719            0.0001000000      YES
          MAX gradient        0.0000533697            0.0003000000      YES
          RMS step            0.0002282467            0.0020000000      YES
          MAX step            0.0006349900            0.0040000000      YES
          ........................................................
          Max(Bonds)      0.0000      Max(Angles)    0.01
          Max(Dihed)        0.04      Max(Improp)    0.00
          ---------------------------------------------------------------------

                    ***********************HURRAY********************
                    ***        THE OPTIMIZATION HAS CONVERGED     ***
                    *************************************************


    ---------------------------------------------------------------------------
                         Redundant Internal Coordinates

                          --- Optimized Parameters ---  
                            (Angstroem and degrees)

        Definition                    OldVal   dE/dq     Step     FinalVal
    ----------------------------------------------------------------------------
     1. B(C   1,C   0)                1.4979  0.000006 -0.0000    1.4979   
     2. B(H   2,C   0)                1.0892  0.000004 -0.0000    1.0892   
     3. B(H   3,C   0)                1.0944 -0.000001  0.0000    1.0944   
     4. B(H   4,C   0)                1.0944 -0.000000  0.0000    1.0944   
     5. B(C   5,C   1)                1.3317  0.000053 -0.0000    1.3317   
     6. B(H   6,C   1)                1.0869  0.000009 -0.0000    1.0869   
     7. B(C   7,C   5)                1.4979  0.000008 -0.0000    1.4979   
     8. B(H   8,C   5)                1.0869  0.000010 -0.0000    1.0869   
     9. B(H   9,C   7)                1.0944 -0.000001  0.0000    1.0944   
    10. B(H  10,C   7)                1.0893  0.000004 -0.0000    1.0892   
    11. B(H  11,C   7)                1.0944  0.000002 -0.0000    1.0944   
    12. A(H   2,C   0,H   3)          107.85  0.000016   -0.00    107.85   
    13. A(C   1,C   0,H   2)          112.94 -0.000036    0.01    112.95   
    14. A(H   2,C   0,H   4)          107.85  0.000018   -0.00    107.85   
    15. A(H   3,C   0,H   4)          106.51 -0.000014    0.00    106.51   
    16. A(C   1,C   0,H   3)          110.71  0.000007   -0.00    110.71   
    17. A(C   1,C   0,H   4)          110.70  0.000010   -0.00    110.70   
    18. A(C   0,C   1,C   5)          127.70 -0.000005    0.00    127.70   
    19. A(C   5,C   1,H   6)          117.28  0.000041   -0.01    117.27   
    20. A(C   0,C   1,H   6)          115.02 -0.000036    0.01    115.03   
    21. A(C   7,C   5,H   8)          115.01 -0.000036    0.01    115.02   
    22. A(C   1,C   5,H   8)          117.28  0.000041   -0.01    117.27   
    23. A(C   1,C   5,C   7)          127.71 -0.000005    0.00    127.71   
    24. A(H   9,C   7,H  10)          107.84  0.000018   -0.00    107.84   
    25. A(C   5,C   7,H  10)          112.97 -0.000036    0.01    112.97   
    26. A(C   5,C   7,H   9)          110.71  0.000007   -0.00    110.71   
    27. A(H  10,C   7,H  11)          107.84  0.000017   -0.00    107.83   
    28. A(H   9,C   7,H  11)          106.51 -0.000015    0.00    106.51   
    29. A(C   5,C   7,H  11)          110.71  0.000011   -0.00    110.71   
    30. D(H   6,C   1,C   0,H   2)    179.83 -0.000003    0.01    179.84   
    31. D(C   5,C   1,C   0,H   4)    120.86  0.000001    0.01    120.87   
    32. D(H   6,C   1,C   0,H   3)     58.77 -0.000004    0.01     58.78   
    33. D(C   5,C   1,C   0,H   2)     -0.20 -0.000005    0.01     -0.18   
    34. D(C   5,C   1,C   0,H   3)   -121.26 -0.000005    0.02   -121.24   
    35. D(C   7,C   5,C   1,C   0)      0.04  0.000002   -0.00      0.04   
    36. D(H   8,C   5,C   1,H   6)      0.00 -0.000001    0.00      0.01   
    37. D(H   8,C   5,C   1,C   0)   -179.97 -0.000000    0.00   -179.97   
    38. D(C   7,C   5,C   1,H   6)   -179.99  0.000000   -0.00   -179.99   
    39. D(H  11,C   7,C   5,C   1)    121.07 -0.000004    0.03    121.11   
    40. D(H  10,C   7,C   5,H   8)   -179.98 -0.000007    0.03   -179.94   
    41. D(H  10,C   7,C   5,C   1)      0.02 -0.000009    0.04      0.05   
    42. D(H   9,C   7,C   5,H   8)     58.96 -0.000009    0.03     59.00   
    43. D(H   9,C   7,C   5,C   1)   -121.04 -0.000011    0.04   -121.01   
    ----------------------------------------------------------------------------

Geometry step timings:
Preparation and reading OPT file:      0.001 s (10.594 %)
Internal coordinates            :      0.000 s ( 0.415 %)
B/P matrices and projection     :      0.001 s ( 9.078 %)
Hessian update/contruction      :      0.004 s (40.493 %)
Making the step                 :      0.001 s ( 6.567 %)
Converting the step to Cartesian:      0.000 s ( 1.140 %)
Storing new data                :      0.001 s ( 9.329 %)
Checking convergence            :      0.000 s ( 0.058 %)
Final printing                  :      0.002 s (22.240 %)
Total time                      :      0.010 s
                 *******************************************************
                 *** FINAL ENERGY EVALUATION AT THE STATIONARY POINT ***
                 ***               (AFTER    1 CYCLES)               ***
                 *******************************************************
---------------------------------
CARTESIAN COORDINATES (ANGSTROEM)
---------------------------------
  C      1.479697   -0.478389    0.162334
  C      0.023664   -0.807930    0.285622
  H      1.660201    0.573745   -0.054038
  H      1.944147   -1.068924   -0.633431
  H      2.012196   -0.727147    1.085541
  C     -1.011888    0.020667    0.165405
  H     -0.195224   -1.850923    0.498926
  C     -0.980840    1.490006   -0.123996
  H     -2.005294   -0.402625    0.288891
  H     -1.464531    2.053119    0.680176
  H      0.029785    1.878684   -0.242405
  H     -1.536255    1.715928   -1.039536

----------------------------
CARTESIAN COORDINATES (A.U.)
----------------------------
  NO LB      ZA    FRAG     MASS         X           Y           Z
   0 C     6.0000    0    12.011    2.796222   -0.904025    0.306766
   1 C     6.0000    0    12.011    0.044718   -1.526767    0.539747
   2 H     1.0000    0     1.008    3.137326    1.084221   -0.102117
   3 H     1.0000    0     1.008    3.673905   -2.019973   -1.197012
   4 H     1.0000    0     1.008    3.802500   -1.374109    2.051376
   5 C     6.0000    0    12.011   -1.912191    0.039055    0.312570
   6 H     1.0000    0     1.008   -0.368919   -3.497738    0.942834
   7 C     6.0000    0    12.011   -1.853519    2.815703   -0.234319
   8 H     1.0000    0     1.008   -3.789456   -0.760851    0.545926
   9 H     1.0000    0     1.008   -2.767562    3.879832    1.285347
  10 H     1.0000    0     1.008    0.056286    3.550198   -0.458079
  11 H     1.0000    0     1.008   -2.903100    3.242635   -1.964438

--------------------------------
INTERNAL COORDINATES (ANGSTROEM)
--------------------------------
 C      0   0   0     0.000000000000     0.00000000     0.00000000
 C      1   0   0     1.497942124203     0.00000000     0.00000000
 H      1   2   0     1.089212991189   112.95076031     0.00000000
 H      1   2   3     1.094388709370   110.71104293   238.94224643
 H      1   2   3     1.094416772662   110.70235482   121.05470266
 C      2   1   3     1.331687866586   127.70183745   359.81535015
 H      2   1   3     1.086850940996   115.02619051   179.84191230
 C      6   2   1     1.497889415757   127.71102917     0.03631612
 H      6   2   1     1.086867218257   117.26900317   180.03232377
 H      8   6   2     1.094415990778   110.70752836   238.99261549
 H      8   6   2     1.089245502426   112.97101498     0.05255209
 H      8   6   2     1.094412293350   110.70808524   121.10748668

---------------------------
INTERNAL COORDINATES (A.U.)
---------------------------
 C      0   0   0     0.000000000000     0.00000000     0.00000000
 C      1   0   0     2.830700379208     0.00000000     0.00000000
 H      1   2   0     2.058314254857   112.95076031     0.00000000
 H      1   2   3     2.068094944764   110.71104293   238.94224643
 H      1   2   3     2.068147976701   110.70235482   121.05470266
 C      2   1   3     2.516525363713   127.70183745   359.81535015
 H      2   1   3     2.053850626876   115.02619051   179.84191230
 C      6   2   1     2.830600774680   127.71102917     0.03631612
 H      6   2   1     2.053881386442   117.26900317   180.03232377
 H      8   6   2     2.068146499155   110.70752836   238.99261549
 H      8   6   2     2.058375692191   112.97101498     0.05255209
 H      8   6   2     2.068139512028   110.70808524   121.10748668

---------------------
BASIS SET INFORMATION
---------------------
There are 2 groups of distinct atoms

 Group   1 Type C   : 11s6p2d1f contracted to 5s3p2d1f pattern {62111/411/11/1}
 Group   2 Type H   : 5s1p contracted to 3s1p pattern {311/1}

Atom   0C    basis set group =>   1
Atom   1C    basis set group =>   1
Atom   2H    basis set group =>   2
Atom   3H    basis set group =>   2
Atom   4H    basis set group =>   2
Atom   5C    basis set group =>   1
Atom   6H    basis set group =>   2
Atom   7C    basis set group =>   1
Atom   8H    basis set group =>   2
Atom   9H    basis set group =>   2
Atom  10H    basis set group =>   2
Atom  11H    basis set group =>   2
---------------------------------
AUXILIARY/J BASIS SET INFORMATION
---------------------------------
There are 2 groups of distinct atoms

 Group   1 Type C   : 12s5p4d2f1g contracted to 6s4p3d1f1g pattern {711111/2111/211/2/1}
 Group   2 Type H   : 5s2p1d contracted to 3s1p1d pattern {311/2/1}

Atom   0C    basis set group =>   1
Atom   1C    basis set group =>   1
Atom   2H    basis set group =>   2
Atom   3H    basis set group =>   2
Atom   4H    basis set group =>   2
Atom   5C    basis set group =>   1
Atom   6H    basis set group =>   2
Atom   7C    basis set group =>   1
Atom   8H    basis set group =>   2
Atom   9H    basis set group =>   2
Atom  10H    basis set group =>   2
Atom  11H    basis set group =>   2


           ************************************************************
           *        Program running with 4 parallel MPI-processes     *
           *              working on a common directory               *
           ************************************************************
------------------------------------------------------------------------------
                             ORCA STARTUP CALCULATIONS
                           -- RI-GTO INTEGRALS CHOSEN --
------------------------------------------------------------------------------
------------------------------------------------------------------------------
                   ___                                                        
                  /   \      - P O W E R E D   B Y -                         
                 /     \                                                     
                 |  |  |   _    _      __       _____    __    __             
                 |  |  |  | |  | |    /  \     |  _  \  |  |  /  |          
                  \  \/   | |  | |   /    \    | | | |  |  | /  /          
                 / \  \   | |__| |  /  /\  \   | |_| |  |  |/  /          
                |  |  |   |  __  | /  /__\  \  |    /   |      \           
                |  |  |   | |  | | |   __   |  |    \   |  |\   \          
                \     /   | |  | | |  |  |  |  | |\  \  |  | \   \       
                 \___/    |_|  |_| |__|  |__|  |_| \__\ |__|  \__/        
                                                                              
                      - O R C A' S   B I G   F R I E N D -                    
                                      &                                       
                       - I N T E G R A L  F E E D E R -                       
                                                                              
 v1 FN, 2020, v2 2021, v3 2022-2024                                           
------------------------------------------------------------------------------


----------------------
SHARK INTEGRAL PACKAGE
----------------------

Number of atoms                             ...     12
Number of basis functions                   ...    172
Number of shells                            ...     76
Maximum angular momentum                    ...      3
Integral batch strategy                     ... SHARK/LIBINT Hybrid
RI-J (if used) integral strategy            ... SPLIT-RIJ (Revised 2003 algorithm where possible)
Printlevel                                  ...      1
Contraction scheme used                     ... SEGMENTED contraction
Prescreening option                         ... SCHWARTZ
   Thresh                                   ... 2.500e-11
   Tcut                                     ... 2.500e-12
   Tpresel                                  ... 2.500e-12 
Coulomb Range Separation                    ... NOT USED
Exchange Range Separation                   ... NOT USED
Multipole approximations                    ... NOT USED
Finite Nucleus Model                        ... NOT USED
CABS basis                                  ... NOT available
Auxiliary Coulomb fitting basis             ... AVAILABLE
   # of basis functions in Aux-J            ...    284
   # of shells in Aux-J                     ...    100
   Maximum angular momentum in Aux-J        ...      4
Auxiliary J/K fitting basis                 ... NOT available
Auxiliary Correlation fitting basis         ... NOT available
Auxiliary 'external' fitting basis          ... NOT available

Checking pre-screening integrals            ... done (  0.0 sec) Dimension = 76
Check shell pair data                       ... done (  0.0 sec)
Shell pair information
Shell pair cut-off parameter TPreSel        ...   2.5e-12
Total number of shell pairs                 ...      2926
Shell pairs after pre-screening             ...      2843
Total number of primitive shell pairs       ...      8368
Primitive shell pairs kept                  ...      6636
          la=0 lb=0:    941 shell pairs
          la=1 lb=0:    854 shell pairs
          la=1 lb=1:    208 shell pairs
          la=2 lb=0:    346 shell pairs
          la=2 lb=1:    160 shell pairs
          la=2 lb=2:     36 shell pairs
          la=3 lb=0:    176 shell pairs
          la=3 lb=1:     80 shell pairs
          la=3 lb=2:     32 shell pairs
          la=3 lb=3:     10 shell pairs

Calculating one electron integrals          ... done (  0.0 sec)
Calculating RI/J V-Matrix + Cholesky decomp.... done (  0.0 sec)
Calculating Nuclear repulsion               ... done (  0.0 sec) ENN=    117.714375733415 Eh

Diagonalization of the overlap matrix:
Smallest eigenvalue                        ... 1.213e-04
Time for diagonalization                   ...    0.011 sec
Threshold for overlap eigenvalues          ... 1.000e-07
Number of eigenvalues below threshold      ... 0
Time for construction of square roots      ...    0.010 sec
Total time needed                          ...    0.034 sec

-------------------
DFT GRID GENERATION
-------------------

General Integration Accuracy     IntAcc      ... 4.388
Radial Grid Type                 RadialGrid  ... OptM3 with GC (2021)
Angular Grid (max. ang.)         AngularGrid ... 4 (Lebedev-302)
Angular grid pruning method      GridPruning ... 4 (adaptive)
Weight generation scheme         WeightScheme... mBecke (2022)
Basis function cutoff            BFCut       ... 1.0000e-11
Integration weight cutoff        WCut        ... 1.0000e-14
Partially contracted basis set               ... off
Rotationally invariant grid construction     ... off
Angular grids for H and He will be reduced by one unit

Total number of grid points                  ...    50068
Total number of batches                      ...      790
Average number of points per batch           ...       63
Average number of grid points per atom       ...     4172

--------------------
COSX GRID GENERATION
--------------------

GRIDX 1
-------
General Integration Accuracy     IntAcc      ... 3.816
Radial Grid Type                 RadialGrid  ... OptM3 with GC (2021)
Angular Grid (max. ang.)         AngularGrid ... 1 (Lebedev-50)
Angular grid pruning method      GridPruning ... 4 (adaptive)
Weight generation scheme         WeightScheme... mBecke (2022)
Basis function cutoff            BFCut       ... 1.0000e-11
Integration weight cutoff        WCut        ... 1.0000e-14
Partially contracted basis set               ... on
Rotationally invariant grid construction     ... off
Angular grids for H and He will be reduced by one unit

Total number of grid points                  ...     6482
Total number of batches                      ...       57
Average number of points per batch           ...      113
Average number of grid points per atom       ...      540
UseSFitting                                  ... on

GRIDX 2
-------
General Integration Accuracy     IntAcc      ... 4.020
Radial Grid Type                 RadialGrid  ... OptM3 with GC (2021)
Angular Grid (max. ang.)         AngularGrid ... 2 (Lebedev-110)
Angular grid pruning method      GridPruning ... 4 (adaptive)
Weight generation scheme         WeightScheme... mBecke (2022)
Basis function cutoff            BFCut       ... 1.0000e-11
Integration weight cutoff        WCut        ... 1.0000e-14
Partially contracted basis set               ... on
Rotationally invariant grid construction     ... off
Angular grids for H and He will be reduced by one unit

Total number of grid points                  ...    13494
Total number of batches                      ...      114
Average number of points per batch           ...      118
Average number of grid points per atom       ...     1124
UseSFitting                                  ... on

GRIDX 3
-------
General Integration Accuracy     IntAcc      ... 4.338
Radial Grid Type                 RadialGrid  ... OptM3 with GC (2021)
Angular Grid (max. ang.)         AngularGrid ... 3 (Lebedev-194)
[...]
     18       0.001558  -0.177826   0.016182   0.358558   0.001378  -0.004355
     19       0.006114   0.038900   0.004208   0.132185  -0.010024  -0.028760
     20       0.031910  -0.000290  -0.001463  -0.040375   0.001912   0.005815
     21      -0.001497   0.028851  -0.041697  -0.029843   0.017604  -0.019791
     22      -0.007264   0.019586  -0.017328   0.054257  -0.034201   0.031652
     23      -0.037095  -0.004924   0.004937  -0.009417   0.005989  -0.005406
     24       0.001552  -0.074861   0.001974   0.058381   0.011862  -0.027428
     25       0.005696   0.163458   0.014047   0.372407   0.001308  -0.010116
     26       0.032121  -0.029003  -0.002746  -0.075285  -0.000740   0.003103
     27       0.267346  -0.342265   0.371142  -0.077562  -0.208697   0.200088
     28       0.224652   0.060515   0.010500   0.147402   0.237571  -0.229253
     29      -0.019353  -0.243925   0.223631  -0.113172   0.360793  -0.346816
     30       0.020682   0.131692  -0.157127   0.072408   0.240194  -0.198498
     31       0.097798  -0.275935   0.322244  -0.204150   0.082570  -0.065260
     32       0.497434   0.047098  -0.054043   0.037020  -0.026187   0.021068
     33      -0.264426  -0.320995   0.349225  -0.070581  -0.240857   0.231065
     34      -0.211617   0.154554  -0.082330   0.180681   0.087314  -0.084768
     35       0.088223   0.229233  -0.239234   0.055065  -0.405958   0.390707
                 30         31         32         33         34         35    
      0       0.001879   0.002622   0.002405   0.000315   0.002203   0.002894
      1       0.010468   0.014506  -0.053179  -0.058596  -0.031558  -0.019732
      2       0.052098   0.072394   0.010552   0.011681   0.006157   0.003778
      3      -0.000003   0.000018   0.006456   0.003098  -0.009718  -0.007440
      4      -0.000022   0.000048   0.027921   0.018573  -0.048041  -0.058213
      5       0.000166   0.000557  -0.005729  -0.003762   0.009806   0.011706
      6       0.000545   0.000820   0.087509   0.097629   0.050818   0.033052
      7       0.003027   0.004513   0.548607   0.628236   0.317177   0.196937
      8       0.012163   0.016916  -0.112497  -0.128725  -0.065051  -0.040451
      9       0.177070   0.245785  -0.057519  -0.053383  -0.038799  -0.029367
     10      -0.229296  -0.317735   0.066372   0.061667   0.042755   0.031428
     11      -0.295763  -0.410357   0.108921   0.103498   0.069482   0.048630
     12      -0.200256  -0.278157  -0.067206  -0.062370  -0.044401  -0.033188
     13       0.100517   0.139166   0.020885   0.018410   0.013454   0.010778
     14      -0.342425  -0.475302  -0.122276  -0.115389  -0.077028  -0.054159
     15       0.000019   0.000000  -0.026992   0.017283   0.046877  -0.055473
     16      -0.000054   0.000087  -0.012095   0.006504   0.019495  -0.018628
     17      -0.000318   0.000470   0.003469  -0.001981  -0.005730   0.005912
     18       0.000080   0.000079  -0.071878  -0.043018   0.123791   0.136229
     19       0.000437   0.000480  -0.339673  -0.215060   0.578398   0.647632
     20      -0.001272  -0.001262   0.069486   0.043909  -0.118350  -0.132429
     21      -0.003137   0.002267   0.054521  -0.057349   0.032188  -0.019806
     22      -0.014225   0.010261   0.008777  -0.011482   0.004324  -0.001184
     23      -0.072356   0.052215  -0.004128   0.004747  -0.002221   0.001067
     24      -0.000343   0.000180   0.329315  -0.198313  -0.561801   0.605445
     25       0.000120  -0.000049   0.140880  -0.082250  -0.241915   0.258268
     26       0.001483  -0.000725  -0.041041   0.024224   0.070314  -0.075292
     27      -0.262176   0.188701  -0.052574   0.046425  -0.033924   0.024782
     28       0.292530  -0.210972   0.075311  -0.067846   0.049419  -0.035263
     29       0.414464  -0.298648   0.110180  -0.100573   0.069022  -0.046620
     30       0.000665  -0.000417  -0.539937   0.595195  -0.308385   0.185295
     31      -0.002853   0.002074  -0.200505   0.218389  -0.114832   0.070522
     32      -0.017301   0.012531   0.061797  -0.067628   0.035360  -0.021551
     33       0.299215  -0.215461  -0.061330   0.054587  -0.039866   0.028928
     34      -0.118807   0.085797   0.028620  -0.025330   0.020199  -0.015457
     35       0.471861  -0.340194  -0.124181   0.113374  -0.079219   0.054212


-----------
IR SPECTRUM
-----------

 Mode   freq       eps      Int      T**2         TX        TY        TZ
       cm**-1   L/(mol*cm) km/mol    a.u.
----------------------------------------------------------------------------
  6:    122.37   0.000183    0.93  0.000468  ( 0.000887  0.004241  0.021186)
  7:    141.43   0.000000    0.00  0.000000  ( 0.000067  0.000118  0.000322)
  8:    292.49   0.000001    0.00  0.000001  (-0.000605 -0.000721  0.000174)
  9:    398.51   0.000000    0.00  0.000000  ( 0.000054 -0.000020  0.000021)
 10:    574.56   0.001138    5.75  0.000618  ( 0.019352 -0.015448  0.002212)
 11:    696.67   0.008038   40.62  0.003600  ( 0.002404  0.011546  0.058834)
 12:    871.62   0.000077    0.39  0.000027  ( 0.003278  0.003984 -0.000888)
 13:    980.60   0.003276   16.56  0.001043  (-0.025137  0.020056 -0.002895)
 14:   1005.47   0.000000    0.00  0.000000  ( 0.000058 -0.000055  0.000018)
 15:   1026.99   0.000139    0.70  0.000042  ( 0.004069  0.004951 -0.001115)
 16:   1065.70   0.000885    4.47  0.000259  (-0.000614 -0.003118 -0.015784)
 17:   1066.03   0.000002    0.01  0.000001  ( 0.000069 -0.000200 -0.000800)
 18:   1162.22   0.000058    0.29  0.000015  ( 0.003083 -0.002417  0.000359)
 19:   1295.14   0.000006    0.03  0.000001  ( 0.000725  0.000911 -0.000175)
 20:   1395.00   0.000270    1.37  0.000061  (-0.006015  0.004883 -0.000690)
 21:   1418.73   0.000827    4.18  0.000182  (-0.008475 -0.010234  0.002334)
 22:   1441.05   0.002118   10.70  0.000459  (-0.016657  0.013316 -0.001947)
 23:   1481.72   0.000000    0.00  0.000000  (-0.000037 -0.000031 -0.000092)
 24:   1484.80   0.002524   12.76  0.000531  ( 0.000883  0.004395  0.022592)
 25:   1489.07   0.000916    4.63  0.000192  (-0.010673  0.008741 -0.001246)
 26:   1494.72   0.001171    5.92  0.000244  ( 0.009945  0.011745 -0.002748)
 27:   1730.12   0.001041    5.26  0.000188  (-0.008620 -0.010392  0.002356)
 28:   3016.05   0.009150   46.24  0.000947  ( 0.023668 -0.019438  0.002954)
 29:   3018.04   0.002374   12.00  0.000245  ( 0.010466  0.011380 -0.002534)
 30:   3052.35   0.000211    1.07  0.000022  (-0.000300 -0.000844 -0.004556)
 31:   3052.69   0.007969   40.27  0.000815  ( 0.001055  0.005546  0.027978)
 32:   3099.79   0.000796    4.02  0.000080  ( 0.006996 -0.005520  0.000867)
 33:   3114.34   0.002287   11.56  0.000229  (-0.009404 -0.011544  0.002725)
 34:   3120.34   0.003122   15.78  0.000312  ( 0.013943 -0.010740  0.001572)
 35:   3141.30   0.010385   52.48  0.001032  (-0.020034 -0.024477  0.005590)

* The epsilon (eps) is given for a Dirac delta lineshape.
** The dipole moment derivative (T) already includes vibrational overlap.

The first frequency considered to be a vibration is 6
The total number of vibrations considered is 30


--------------------------
THERMOCHEMISTRY AT 298.15K
--------------------------

Temperature         ...   298.15 K
Pressure            ...     1.00 atm
Total Mass          ...    56.11 AMU
Quasi RRHO          ...     True
Cut-Off Frequency   ...     1.00 cm^-1

Throughout the following assumptions are being made:
  (1) The electronic state is orbitally nondegenerate
  (2) There are no thermally accessible electronically excited states
  (3) Hindered rotations indicated by low frequency modes are not
      treated as such but are treated as vibrations and this may
      cause some error
  (4) All equations used are the standard statistical mechanics
      equations for an ideal gas
  (5) All vibrations are strictly harmonic

freq.     122.37  E(vib)   ...       0.43 
freq.     141.43  E(vib)   ...       0.41 
freq.     292.49  E(vib)   ...       0.27 
freq.     398.51  E(vib)   ...       0.20 
freq.     574.56  E(vib)   ...       0.11 
freq.     696.67  E(vib)   ...       0.07 
freq.     871.62  E(vib)   ...       0.04 
freq.     980.60  E(vib)   ...       0.02 
freq.    1005.47  E(vib)   ...       0.02 
freq.    1026.99  E(vib)   ...       0.02 
freq.    1065.70  E(vib)   ...       0.02 
freq.    1066.03  E(vib)   ...       0.02 
freq.    1162.22  E(vib)   ...       0.01 
freq.    1295.14  E(vib)   ...       0.01 
freq.    1395.00  E(vib)   ...       0.00 
freq.    1418.73  E(vib)   ...       0.00 
freq.    1441.05  E(vib)   ...       0.00 
freq.    1481.72  E(vib)   ...       0.00 
freq.    1484.80  E(vib)   ...       0.00 
freq.    1489.07  E(vib)   ...       0.00 
freq.    1494.72  E(vib)   ...       0.00 
freq.    1730.12  E(vib)   ...       0.00 
freq.    3016.05  E(vib)   ...       0.00 
freq.    3018.04  E(vib)   ...       0.00 
freq.    3052.35  E(vib)   ...       0.00 
freq.    3052.69  E(vib)   ...       0.00 
freq.    3099.79  E(vib)   ...       0.00 
freq.    3114.34  E(vib)   ...       0.00 
freq.    3120.34  E(vib)   ...       0.00 
freq.    3141.30  E(vib)   ...       0.00 

------------
INNER ENERGY
------------

The inner energy is: U= E(el) + E(ZPE) + E(vib) + E(rot) + E(trans)
    E(el)   - is the total energy from the electronic structure calculation
              = E(kin-el) + E(nuc-el) + E(el-el) + E(nuc-nuc)
    E(ZPE)  - the the zero temperature vibrational energy from the frequency calculation
    E(vib)  - the the finite temperature correction to E(ZPE) due to population
              of excited vibrational states
    E(rot)  - is the rotational thermal energy
    E(trans)- is the translational thermal energy

Summary of contributions to the inner energy U:
Electronic energy                ...   -157.18315116 Eh
Zero point energy                ...      0.10764329 Eh      67.55 kcal/mol
Thermal vibrational correction   ...      0.00268044 Eh       1.68 kcal/mol
Thermal rotational correction    ...      0.00141627 Eh       0.89 kcal/mol
Thermal translational correction ...      0.00141627 Eh       0.89 kcal/mol
-----------------------------------------------------------------------
Total thermal energy                   -157.06999488 Eh


Summary of corrections to the electronic energy:
(perhaps to be used in another calculation)
Total thermal correction                  0.00551299 Eh       3.46 kcal/mol
Non-thermal (ZPE) correction              0.10764329 Eh      67.55 kcal/mol
-----------------------------------------------------------------------
Total correction                          0.11315628 Eh      71.01 kcal/mol


--------
ENTHALPY
--------

The enthalpy is H = U + kB*T
                kB is Boltzmann's constant
Total thermal energy              ...   -157.06999488 Eh 
Thermal Enthalpy correction       ...      0.00094421 Eh       0.59 kcal/mol
-----------------------------------------------------------------------
Total Enthalpy                    ...   -157.06905067 Eh


Note: Only C1 symmetry has been detected, increase convergence thresholds 
      if your molecule has a higher symmetry. Symmetry factor of 1.0 is   
      used for the rotational entropy correction. 
 

Note: Rotational entropy computed according to Herzberg 
Infrared and Raman Spectra, Chapter V,1, Van Nostrand Reinhold, 1945 
Point Group:  C1, Symmetry Number:   1  
Rotational constants in cm-1:     0.545483     0.170305     0.136292 

Vibrational entropy computed according to the QRRHO of S. Grimme
Chem.Eur.J. 2012 18 9955 using a reference frequency of 100.0 cm-1


-------
ENTROPY
-------

The entropy contributions are T*S = T*(S(el)+S(vib)+S(rot)+S(trans))
     S(el)   - electronic entropy
     S(vib)  - vibrational entropy
     S(rot)  - rotational entropy
     S(trans)- translational entropy
The entropies will be listed as multiplied by the temperature to get
units of energy

Electronic entropy                ...      0.00000000 Eh      0.00 kcal/mol
Vibrational entropy               ...      0.00459131 Eh      2.88 kcal/mol
Rotational entropy                ...      0.01157347 Eh      7.26 kcal/mol
Translational entropy             ...      0.01805279 Eh     11.33 kcal/mol
-----------------------------------------------------------------------
Final entropy term                ...      0.03421757 Eh     21.47 kcal/mol

In case the symmetry of your molecule has not been determined correctly
or in case you have a reason to use a different symmetry number we print 
out the resulting rotational entropy values for sn=1,12:

 non-linear molecules -----------------------------------
|  sn= 1 | S(rot)=       0.01157347 Eh      7.26 kcal/mol|
|  sn= 2 | S(rot)=       0.01091901 Eh      6.85 kcal/mol|
|  sn= 3 | S(rot)=       0.01053618 Eh      6.61 kcal/mol|
|  sn= 4 | S(rot)=       0.01026456 Eh      6.44 kcal/mol|
|  sn= 5 | S(rot)=       0.01005387 Eh      6.31 kcal/mol|
|  sn= 6 | S(rot)=       0.00988172 Eh      6.20 kcal/mol|
|  sn= 7 | S(rot)=       0.00973618 Eh      6.11 kcal/mol|
|  sn= 8 | S(rot)=       0.00961010 Eh      6.03 kcal/mol|
|  sn= 9 | S(rot)=       0.00949889 Eh      5.96 kcal/mol|
|  sn=10 | S(rot)=       0.00939941 Eh      5.90 kcal/mol|
|  sn=11 | S(rot)=       0.00930942 Eh      5.84 kcal/mol|
|  sn=12 | S(rot)=       0.00922727 Eh      5.79 kcal/mol|
 linear molecules ---------------------------------------
|  Dinfh | S(rot)=       0.00720752 Eh      4.52 kcal/mol|
|  Cinfv | S(rot)=       0.00786197 Eh      4.93 kcal/mol|
 --------------------------------------------------------


-------------------
GIBBS FREE ENERGY
-------------------

The Gibbs free energy is G = H - T*S

Total enthalpy                    ...   -157.06905067 Eh 
Total entropy correction          ...     -0.03421757 Eh    -21.47 kcal/mol
-----------------------------------------------------------------------
Final Gibbs free energy         ...   -157.10326825 Eh

For completeness - the Gibbs free energy minus the electronic energy
G-E(el)                           ...      0.07988292 Eh     50.13 kcal/mol


Maximum memory used throughout the entire PROP-calculation: 42.7 MB

--------------------------------
SUGGESTED CITATIONS FOR THIS RUN
--------------------------------

Below you find a list of papers that are relevant to this ORCA run
We neither can nor want to force you to cite these papers, but we appreciate if you do
You receive ORCA, which is the product of decades of hard work by many enthusiastic individuals, for free
The only thing we kindly ask in return is that you cite our papers,
We deeply appreciate it, if you show your appreciation for ORCA by not just citing the generic ORCA reference.

Please note that relegating all ORCA citations to the supporting information does *not* help us.
SI sections are not indexed - citations you put there will not count into any citation statistics
But we need these citations in order to attract the funding resources that allow us to do what we are doing

Therefore, if you are a happy ORCA user, please consider citing a few of the papers listed below in the main body of your paper

In addition to the list printed below, the program has created the file cis.bibtex that contains the list in bibtex format
You can import this file easily into all common literature databanks and citation aid programs


List of essential papers. We consider these as the minimum necessary citations

  1. Neese,F.
     Software update: the ORCA program system, version 5.0
     WIRES Comput. Molec. Sci., 2022 12(1)e1606
     doi.org/10.1002/wcms.1606

List of papers to cite with high priority. The work reported in these papers was absolutely
necessary for this run to complete.
Our perspective: the developers of density functionals and basis sets usually get cited in chemistry papers
Good! But without the algorithms to do something with them, the functionals or basis sets would not do anything.
Hence, in our opinion, the algorithm design and method developments papers are equally worthy of getting cited

  1. Neese,F.
     An improvement of the resolution of the identity approximation for the formation of the Coulomb matrix
     J. Comp. Chem., 2003 24(14)1740-1747
     doi.org/10.1002/jcc.10318
  2. Neese,F.; Wennmohs,F.; Hansen,A.; Becker,U.
     Efficient, approximate and parallel Hartree-Fock and hybrid DFT calculations. A 'chain-of-spheres' algorithm for the Hartree-Fock exchange
     Chem. Phys., 2009 356(1-3)98-109
     doi.org/10.1016/j.chemphys.2008.10.036
  3. Bykov,D.; Petrenko,T.; Izsak,R.; Kossmann,S.; Becker,U.; Valeev,E.; Neese,F.
     Efficient implementation of the analytic second derivatives of Hartree-Fock and hybrid DFT energies: a detailed analysis of different approximations
     Molec. Phys., 2015 113 1961-1977
     doi.org/10.1080/00268976.2015.1025114
  4. Helmich-Paris,B.; de Souza,B.; Neese,F.; Izsák,R.
     An improved chain of spheres for exchange algorithm
     J. Chem. Phys., 2021 155 104109
     doi.org/doi: 10.1063/5.0058766.
  5. Neese,F.
     The SHARK Integral Generation and Digestion System
     J. Comp. Chem., 2022  1-16
     doi.org/10.1002/jcc.26942
  6. Caldeweyher,E.; Bannwarth,C.; Grimme,S.
     Extension of the D3 dispersion coefficient model
     J. Chem. Phys., 2017 147 034112-XXXX
     doi.org/10.1063/1.4993215
  7. Caldeweyher,E.; Ehlert,S.; Hansen,A.; Neugebauer,H.; Spicher,S.; Bannwarth,C.; Grimme,S.
     A generally applicable atomic-charge dependent London dispersion correction
     J. Chem. Phys., 2019 150 154122-XXXX
     doi.org/10.1063/1.5090222
  8. Caldeweyher,E.; Mewes,J.; Ehlert,S.; Grimme,S.
     Extension and evaluation of the D4 London-dispersion model for periodic systems
     Phys. Chem. Chem. Phys., 2020 22(16)8499-8512
     doi.org/10.1039/D0CP00502A

List of suggested additional citations. These are papers that are important in the 'surrounding' of 
of this run, or papers that preceded the highly important papers. If you like your results we are grateful for a citation.

  1. Izsak,R.; Neese,F.
     An overlap fitted chain of spheres exchange method
     J. Chem. Phys., 2011 135 144105
     doi.org/10.1063/1.3646921
  2. Izsak,R.; Hansen,A.; Neese,F.
     The resolution of identity and chain of spheres approximations for the LPNO-CCSD singles Fock term
     Molec. Phys., 2012 110 2413-2417
     doi.org/10.1080/00268976.2012.687466
  3. Neese,F.
     The ORCA program system
     WIRES Comput. Molec. Sci., 2012 2(1)73-78
     doi.org/10.1002/wcms.81
  4. Izsak,R.; Neese,F.; Klopper,W.
     Robust fitting techniques in the chain of spheres approximation to the Fock exchange: The role of the complementary space
     J. Chem. Phys., 2013 139 
     doi.org/10.1063/1.4819264
  5. Neese,F.
     Software update: the ORCA program system, version 4.0
     WIRES Comput. Molec. Sci., 2018 8(1)1-6
     doi.org/10.1002/wcms.1327
  6. Neese,F.; Wennmohs,F.; Becker,U.; Riplinger,C.
     The ORCA quantum chemistry program package
     J. Chem. Phys., 2020 152 Art. No. L224108
     doi.org/10.1063/5.0004608

List of optional additional citations

  1. Neese,F.
     Approximate second-order SCF convergence for spin unrestricted wavefunctions
     Chem. Phys. Lett., 2000 325(1-3)93-98
     doi.org/10.1016/s0009-2614(00)00662-x

Timings for individual modules:

Sum of individual times          ...      414.037 sec (=   6.901 min)
Startup calculation              ...        5.425 sec (=   0.090 min)   1.3 %
SCF iterations                   ...       38.706 sec (=   0.645 min)   9.3 %
Property integrals               ...       65.562 sec (=   1.093 min)  15.8 %
SCF Response                     ...       37.996 sec (=   0.633 min)   9.2 %
Property calculations            ...      246.542 sec (=   4.109 min)  59.5 %
SCF Gradient evaluation          ...       19.782 sec (=   0.330 min)   4.8 %
Geometry relaxation              ...        0.025 sec (=   0.000 min)   0.0 %
                             ****ORCA TERMINATED NORMALLY****
TOTAL RUN TIME: 0 days 0 hours 6 minutes 55 seconds 982 msec
