
                                 *****************
                                 * O   R   C   A *
                                 *****************

                                            #,                                       
                                            ###                                      
                                            ####                                     
                                            #####                                    
                                            ######                                   
                                           ########,                                 
                                     ,,################,,,,,                         
                               ,,#################################,,                 
                          ,,##########################################,,             
                       ,#########################################, ''#####,          
                    ,#############################################,,   '####,        
                  ,##################################################,,,,####,       
                ,###########''''           ''''###############################       
              ,#####''   ,,,,##########,,,,          '''####'''          '####       
            ,##' ,,,,###########################,,,                        '##       
           ' ,,###''''                  '''############,,,                           
         ,,##''                                '''############,,,,        ,,,,,,###''
      ,#''                                            '''#######################'''  
     '                                                          ''''####''''         
             ,#######,   #######,   ,#######,      ##                                
            ,#'     '#,  ##    ##  ,#'     '#,    #''#        ,####,   ,####,        
            ##       ##  ##   ,#'  ##            #'  '#       #'       #'  '#        
            ##       ##  #######   ##           ,######,      #####,   #    #        
            '#,     ,#'  ##    ##  '#,     ,#' ,#      #,     #,   #   #,  ,#        
             '#######'   ##     ##  '#######'  #'      '#     '####' # '####'        



                #########################################################
                #                        -***-                          #
                #          Department of theory and spectroscopy        #
                #                                                       #
                #                      Frank Neese                      #
                #                                                       #
                #     Directorship, Architecture, Infrastructure        #
                #                    SHARK, DRIVERS                     #
                #        Core code/Algorithms in most modules           #
                #                                                       #
                #        Max Planck Institute fuer Kohlenforschung      #
                #                Kaiser Wilhelm Platz 1                 #
                #                 D-45470 Muelheim/Ruhr                 #
                #                      Germany                          #
                #                                                       #
                #                  All rights reserved                  #
                #                        -***-                          #
                #########################################################


                         Program Version 6.0.0  -   RELEASE  -


 With contributions from (in alphabetic order):
   Daniel Aravena         : Magnetic Suceptibility
   Michael Atanasov       : Ab Initio Ligand Field Theory (pilot matlab implementation)
   Alexander A. Auer      : GIAO ZORA, VPT2 properties, NMR spectrum
   Ute Becker             : All parallelization in ORCA, NUMFREQ, NUMCALC
   Giovanni Bistoni       : ED, misc. LED, open-shell LED, HFLD
   Martin Brehm           : Molecular dynamics
   Dmytro Bykov           : pre 5.0 version of the SCF Hessian
   Marcos Casanova-Páez   : Triplet and SCS-CIS(D). UHF-(DLPNO)-IP/EA/STEOM-CCSD. UHF-CVS-IP/STEOM-CCSD
   Vijay G. Chilkuri      : MRCI spin determinant printing, contributions to CSF-ICE
   Pauline Colinet        : FMM embedding
   Dipayan Datta          : RHF DLPNO-CCSD density
   Achintya Kumar Dutta   : EOM-CC, STEOM-CC
   Nicolas Foglia         : Exact transition moments, OPA infrastructure, MCD improvements
   Dmitry Ganyushin       : Spin-Orbit,Spin-Spin,Magnetic field MRCI
   Miquel Garcia          : C-PCM and meta-GGA Hessian, CCSD/C-PCM, Gaussian charge scheme
   Tiago L. C. Gouveia    : GS-ROHF, GS-ROCIS
   Yang Guo               : DLPNO-NEVPT2, F12-NEVPT2, CIM, IAO-localization
   Andreas Hansen         : Spin unrestricted coupled pair/coupled cluster methods
   Ingolf Harden          : AUTO-CI MPn and infrastructure 
   Benjamin Helmich-Paris : MC-RPA, TRAH-(SCF,CASSCF), AVAS, COSX integrals, SCF dyn. polar.
   Lee Huntington         : MR-EOM, pCC
   Robert Izsak           : Overlap fitted RIJCOSX, COSX-SCS-MP3, EOM
   Riya Kayal             : Wick's Theorem for AUTO-CI, AUTO-CI UHF-CCSDT
   Emily Kempfer          : AUTO-CI, RHF CISDT and CCSDT
   Christian Kollmar      : KDIIS, OOCD, Brueckner-CCSD(T), CCSD density, CASPT2, CASPT2-K, improved NEVPT2
   Axel Koslowski         : Symmetry handling
   Simone Kossmann        : Meta GGA functionals, TD-DFT gradient, OOMP2, (MP2 Hessian; deprecated post 5.0)
   Lucas Lang             : DCDCAS
   Marvin Lechner         : AUTO-CI (C++ implementation), FIC-MRCC
   Spencer Leger          : CASSCF response
   Dagmar Lenk            : GEPOL surface, SMD, ORCA-2-JSON
   Dimitrios Liakos       : Extrapolation schemes; Compound Job, initial MDCI parallelization
   Dimitrios Manganas     : Further ROCIS development; embedding schemes. LFT, Crystal Embedding
   Dimitrios Pantazis     : SARC Basis sets
   Anastasios Papadopoulos: AUTO-CI, single reference methods and gradients
   Taras Petrenko         : pre 6.0 DFT Hessian and TD-DFT gradient, (ASA, deprecated), ECA, 1-Electron XAS/XES, NRVS
   Peter Pinski           : DLPNO-MP2, DLPNO-MP2 Gradient
   Christoph Reimann      : Effective Core Potentials
   Marius Retegan         : Local ZFS, SOC
   Christoph Riplinger    : Optimizer, TS searches, QM/MM, DLPNO-CCSD(T), (RO)-DLPNO pert. Triples
   Michael Roemelt        : Original ROCIS implementation
   Masaaki Saitow         : Open-shell DLPNO-CCSD energy and density
   Barbara Sandhoefer     : DKH picture change effects
   Kantharuban Sivalingam : CASSCF convergence/infrastructure, NEVPT2 and variants, FIC-MRCI
   Bernardo de Souza      : ESD, SOC TD-DFT
   Georgi Stoychev        : AutoAux, RI-MP2 NMR, DLPNO-MP2 response, X2C
   Van Anh Tran           : RI-MP2 g-tensors
   Willem Van den Heuvel  : Paramagnetic NMR
   Zikuan Wang            : NOTCH, Electric field optimization 
   Frank Wennmohs         : Technical directorship and infrastructure
   Hang Xu                : AUTO-CI-Response properties 


 We gratefully acknowledge several colleagues who have allowed us to
 interface, adapt or use parts of their codes:
   Stefan Grimme, W. Hujo, H. Kruse, P. Pracht,  : VdW corrections, initial TS optimization,
                  C. Bannwarth, S. Ehlert,         DFT functionals, gCP, sTDA/sTD-DF
                  L. Wittmann, M. Mueller
   Ed Valeev, F. Pavosevic, A. Kumar             : LibInt (2-el integral package), F12 methods
   Garnet Chan, S. Sharma, J. Yang, R. Olivares  : DMRG
   Ulf Ekstrom                                   : XCFun DFT Library
   Mihaly Kallay                                 : mrcc  (arbitrary order and MRCC methods)
   Frank Weinhold                                : gennbo (NPA and NBO analysis)
   Simon Mueller                                 : openCOSMO-RS
   Christopher J. Cramer and Donald G. Truhlar   : smd solvation model
   Lars Goerigk                                  : TD-DFT with DH, B97 family of functionals
   V. Asgeirsson, H. Jonsson                     : NEB implementation
   FAccTs GmbH                                   : IRC, NEB, NEB-TS, DLPNO-Multilevel, CI-OPT
                                                   MM, QMMM, 2- and 3-layer-ONIOM, Crystal-QMMM,
                                                   LR-CPCM, SF, NACMEs, symmetry and pop. for TD-DFT,
                                                   nearIR, NL-DFT gradient (VV10), updates on ESD,
                                                   ML-optimized integration grids, MBIS, APM,
                                                   GOAT, DOCKER, SOLVATOR, interface openCOSMO-RS
   S Lehtola, MJT Oliveira, MAL Marques          : LibXC Library
   Liviu Ungur et al                             : ANISO software


 Your calculation uses the libint2 library for the computation of 2-el integrals
 For citations please refer to: http://libint.valeyev.net

 Your ORCA version has been built with support for libXC version: 6.2.2
 For citations please refer to: https://libxc.gitlab.io

 This ORCA versions uses:
   CBLAS   interface :  Fast vector & matrix operations
   LAPACKE interface :  Fast linear algebra routines
   SCALAPACK package :  Parallel linear algebra routines
   Shared memory     :  Shared parallel matrices
   BLAS/LAPACK       :  OpenBLAS 0.3.27  USE64BITINT DYNAMIC_ARCH NO_AFFINITY Prescott SINGLE_THREADED
        Core in use  :  Prescott
   Copyright (c) 2011-2014, The OpenBLAS Project


NOTE: MaxCore=1800 MB was set to SCF,MP2,MDCI,CIPSI,MRCI and CIS
      => If you want to overwrite this, your respective input block should be placed after the MaxCore statement


***************************************
The coordinates will be read from file: gem.xyz
***************************************


Your calculation utilizes the atom-pairwise dispersion correction
based on EEQ partial charges (D4)


Warning: RI is on but no J-basis has been assigned. Assigning Def2/J (nothing to worry about!)
================================================================================

----- Orbital basis set information -----
Your calculation utilizes the basis: def2-TZVP
   F. Weigend and R. Ahlrichs, Phys. Chem. Chem. Phys. 7, 3297 (2005).

----- AuxJ basis set information -----
Your calculation utilizes the auxiliary basis: def2/J
   F. Weigend, Phys. Chem. Chem. Phys. 8, 1057 (2006).

================================================================================
                                        WARNINGS
                       Please study these warnings very carefully!
================================================================================


WARNING: Geometry Optimization
  ===> : Switching off AutoStart
         For restart on a previous wavefunction, please use MOREAD

================================================================================
                                       INPUT FILE
================================================================================
NAME = gem.inp
|  1> !B3LYP D4 DEF2-TZVP OPT FREQ PAL4
|  2> %maxcore 1800
|  3> 
|  4> * XYZFILE 0 1 gem.xyz
|  5> 
|  6>                          ****END OF INPUT****
================================================================================

                       *****************************
                       * Geometry Optimization Run *
                       *****************************

Geometry optimization settings:
Update method            Update   .... BFGS
Choice of coordinates    CoordSys .... (2022) Redundant Internals
Initial Hessian          InHess   .... Almloef's Model
Max. no of cycles        MaxIter  .... 50

Convergence Tolerances:
Energy Change            TolE     ....  5.0000e-06 Eh
Max. Gradient            TolMAXG  ....  3.0000e-04 Eh/bohr
RMS Gradient             TolRMSG  ....  1.0000e-04 Eh/bohr
Max. Displacement        TolMAXD  ....  4.0000e-03 bohr
RMS Displacement         TolRMSD  ....  2.0000e-03 bohr
Strict Convergence                .... False

------------------------------------------------------------------------------
                        ORCA OPTIMIZATION COORDINATE SETUP
------------------------------------------------------------------------------

The optimization will be done in redundant internal coordinates (2022)
Making redundant internal coordinates   ...  (2022 redundants) done
Evaluating the initial hessian          ...  (Almloef) done
Evaluating the coordinates              ...  done
Calculating the B-matrix                .... done
Calculating the G-matrix                .... done
Diagonalizing the G-matrix              .... done
The first mode is                       ....   13
The number of degrees of freedom        ....   30

    -----------------------------------------------------------------
                    Redundant Internal Coordinates


    -----------------------------------------------------------------
         Definition                    Initial Value    Approx d2E/dq
    -----------------------------------------------------------------
      1. B(C   1,C   0)                  1.3306         0.777059   
      2. B(C   2,C   1)                  1.5026         0.413080   
      3. B(C   3,C   1)                  1.5026         0.413101   
      4. B(H   4,C   2)                  1.0948         0.353853   
      5. B(H   5,C   2)                  1.0900         0.360110   
      6. B(H   6,C   2)                  1.0948         0.353826   
      7. B(H   7,C   0)                  1.0835         0.368827   
      8. B(H   8,C   0)                  1.0835         0.368853   
      9. B(H   9,C   3)                  1.0948         0.353846   
     10. B(H  10,C   3)                  1.0900         0.360073   
     11. B(H  11,C   3)                  1.0948         0.353805   
     12. A(H   7,C   0,H   8)          116.8737         0.293042   
     13. A(C   1,C   0,H   8)          121.5686         0.368261   
     14. A(C   1,C   0,H   7)          121.5577         0.368256   
     15. A(C   0,C   1,C   3)          122.2176         0.420273   
     16. A(C   2,C   1,C   3)          115.5816         0.376127   
     17. A(C   0,C   1,C   2)          122.2008         0.420269   
     18. A(C   1,C   2,H   6)          110.8078         0.328778   
     19. A(H   4,C   2,H   5)          108.3545         0.290043   
     20. A(C   1,C   2,H   5)          111.8292         0.329736   
     21. A(H   5,C   2,H   6)          108.3495         0.290039   
     22. A(C   1,C   2,H   4)          110.7825         0.328783   
     23. A(H   4,C   2,H   6)          106.5258         0.289243   
     24. A(H   9,C   3,H  10)          108.3463         0.290037   
     25. A(C   1,C   3,H  10)          111.8491         0.329733   
     26. A(C   1,C   3,H   9)          110.7922         0.328784   
     27. A(H  10,C   3,H  11)          108.3439         0.290032   
     28. A(H   9,C   3,H  11)          106.5246         0.289240   
     29. A(C   1,C   3,H  11)          110.7921         0.328778   
     30. D(C   3,C   1,C   0,H   7)   -179.9955         0.043367   
     31. D(C   2,C   1,C   0,H   8)   -179.9865         0.043367   
     32. D(C   2,C   1,C   0,H   7)      0.0229         0.043367   
     33. D(C   3,C   1,C   0,H   8)     -0.0049         0.043367   
     34. D(H   4,C   2,C   1,C   3)    -59.0972         0.012631   
     35. D(H   4,C   2,C   1,C   0)    120.8856         0.012631   
     36. D(H   6,C   2,C   1,C   0)   -121.1000         0.012631   
     37. D(H   5,C   2,C   1,C   3)    179.9156         0.012631   
     38. D(H   5,C   2,C   1,C   0)     -0.1016         0.012631   
     39. D(H  11,C   3,C   1,C   0)    120.8084         0.012632   
     40. D(H  10,C   3,C   1,C   2)    179.7974         0.012632   
     41. D(H  10,C   3,C   1,C   0)     -0.1854         0.012632   
     42. D(H   9,C   3,C   1,C   2)     58.8003         0.012632   
     43. D(H   9,C   3,C   1,C   0)   -121.1825         0.012632   
    -----------------------------------------------------------------

Number of atoms                         .... 12
Number of degrees of freedom            .... 43


         *************************************************************
         *                GEOMETRY OPTIMIZATION CYCLE   1            *
         *************************************************************
---------------------------------
CARTESIAN COORDINATES (ANGSTROEM)
---------------------------------
  C     -1.433336    0.997504   -0.118333
  C     -0.184755    0.627591   -0.391817
  C      0.138129   -0.699041   -1.019279
  C      0.995310    1.508868   -0.094038
  H      0.665264   -0.561587   -1.968881
  H     -0.759744   -1.287759   -1.207212
  H      0.804035   -1.282186   -0.375025
  H     -2.276508    0.353351   -0.337559
  H     -1.654513    1.956810    0.334108
  H      1.558255    1.726319   -1.007453
  H      0.692228    2.454489    0.355503
  H      1.690496    1.009880    0.588835

----------------------------
CARTESIAN COORDINATES (A.U.)
----------------------------
  NO LB      ZA    FRAG     MASS         X           Y           Z
   0 C     6.0000    0    12.011   -2.708613    1.885010   -0.223617
   1 C     6.0000    0    12.011   -0.349136    1.185975   -0.740426
   2 C     6.0000    0    12.011    0.261026   -1.320997   -1.926159
   3 C     6.0000    0    12.011    1.880863    2.851347   -0.177706
   4 H     1.0000    0     1.008    1.257166   -1.061246   -3.720646
   5 H     1.0000    0     1.008   -1.435708   -2.433512   -2.281300
   6 H     1.0000    0     1.008    1.519406   -2.422980   -0.708694
   7 H     1.0000    0     1.008   -4.301978    0.667736   -0.637894
   8 H     1.0000    0     1.008   -3.126577    3.697836    0.631373
   9 H     1.0000    0     1.008    2.944674    3.262271   -1.903810
  10 H     1.0000    0     1.008    1.308122    4.638312    0.671803
  11 H     1.0000    0     1.008    3.194575    1.908397    1.112737

--------------------------------
INTERNAL COORDINATES (ANGSTROEM)
--------------------------------
 C      0   0   0     0.000000000000     0.00000000     0.00000000
 C      1   0   0     1.330633337703     0.00000000     0.00000000
 C      2   1   0     1.502636660456   122.20076529     0.00000000
 C      2   1   3     1.502622498980   122.21759582   179.98164947
 H      3   2   1     1.094763668872   110.78246781   120.88559578
 H      3   2   1     1.089992166672   111.82917476   359.89842742
 H      3   2   1     1.094784167801   110.80780991   238.90004372
 H      1   2   3     1.083481877381   121.55773631     0.00000000
 H      1   2   3     1.083462189029   121.56858910   180.01349922
 H      4   2   1     1.094768829470   110.79219835   238.81754936
 H      4   2   1     1.090020691854   111.84907032   359.81456754
 H      4   2   1     1.094800386701   110.79206810   120.80842410

---------------------------
INTERNAL COORDINATES (A.U.)
---------------------------
 C      0   0   0     0.000000000000     0.00000000     0.00000000
 C      1   0   0     2.514532592924     0.00000000     0.00000000
 C      2   1   0     2.839571767053   122.20076529     0.00000000
 C      2   1   3     2.839545005741   122.21759582   179.98164947
 H      3   2   1     2.068803515535   110.78246781   120.88559578
 H      3   2   1     2.059786683130   111.82917476   359.89842742
 H      3   2   1     2.068842252896   110.80780991   238.90004372
 H      1   2   3     2.047484019317   121.55773631     0.00000000
 H      1   2   3     2.047446813723   121.56858910   180.01349922
 H      4   2   1     2.068813267652   110.79219835   238.81754936
 H      4   2   1     2.059840587912   111.84907032   359.81456754
 H      4   2   1     2.068872902177   110.79206810   120.80842410

---------------------
BASIS SET INFORMATION
---------------------
There are 2 groups of distinct atoms

 Group   1 Type C   : 11s6p2d1f contracted to 5s3p2d1f pattern {62111/411/11/1}
 Group   2 Type H   : 5s1p contracted to 3s1p pattern {311/1}

Atom   0C    basis set group =>   1
Atom   1C    basis set group =>   1
Atom   2C    basis set group =>   1
Atom   3C    basis set group =>   1
Atom   4H    basis set group =>   2
Atom   5H    basis set group =>   2
Atom   6H    basis set group =>   2
Atom   7H    basis set group =>   2
Atom   8H    basis set group =>   2
Atom   9H    basis set group =>   2
Atom  10H    basis set group =>   2
Atom  11H    basis set group =>   2
---------------------------------
AUXILIARY/J BASIS SET INFORMATION
---------------------------------
There are 2 groups of distinct atoms

 Group   1 Type C   : 12s5p4d2f1g contracted to 6s4p3d1f1g pattern {711111/2111/211/2/1}
 Group   2 Type H   : 5s2p1d contracted to 3s1p1d pattern {311/2/1}

Atom   0C    basis set group =>   1
Atom   1C    basis set group =>   1
Atom   2C    basis set group =>   1
Atom   3C    basis set group =>   1
Atom   4H    basis set group =>   2
Atom   5H    basis set group =>   2
Atom   6H    basis set group =>   2
Atom   7H    basis set group =>   2
Atom   8H    basis set group =>   2
Atom   9H    basis set group =>   2
Atom  10H    basis set group =>   2
Atom  11H    basis set group =>   2


           ************************************************************
           *        Program running with 4 parallel MPI-processes     *
           *              working on a common directory               *
           ************************************************************
------------------------------------------------------------------------------
                             ORCA STARTUP CALCULATIONS
                           -- RI-GTO INTEGRALS CHOSEN --
------------------------------------------------------------------------------
------------------------------------------------------------------------------
                   ___                                                        
                  /   \      - P O W E R E D   B Y -                         
                 /     \                                                     
                 |  |  |   _    _      __       _____    __    __             
                 |  |  |  | |  | |    /  \     |  _  \  |  |  /  |          
                  \  \/   | |  | |   /    \    | | | |  |  | /  /          
                 / \  \   | |__| |  /  /\  \   | |_| |  |  |/  /          
                |  |  |   |  __  | /  /__\  \  |    /   |      \           
                |  |  |   | |  | | |   __   |  |    \   |  |\   \          
                \     /   | |  | | |  |  |  |  | |\  \  |  | \   \       
                 \___/    |_|  |_| |__|  |__|  |_| \__\ |__|  \__/        
                                                                              
                      - O R C A' S   B I G   F R I E N D -                    
                                      &                                       
                       - I N T E G R A L  F E E D E R -                       
                                                                              
 v1 FN, 2020, v2 2021, v3 2022-2024                                           
------------------------------------------------------------------------------


----------------------
SHARK INTEGRAL PACKAGE
----------------------

Number of atoms                             ...     12
Number of basis functions                   ...    172
Number of shells                            ...     76
Maximum angular momentum                    ...      3
Integral batch strategy                     ... SHARK/LIBINT Hybrid
RI-J (if used) integral strategy            ... SPLIT-RIJ (Revised 2003 algorithm where possible)
Printlevel                                  ...      1
Contraction scheme used                     ... SEGMENTED contraction
Prescreening option                         ... SCHWARTZ
   Thresh                                   ... 2.500e-11
   Tcut                                     ... 2.500e-12
   Tpresel                                  ... 2.500e-12 
Coulomb Range Separation                    ... NOT USED
Exchange Range Separation                   ... NOT USED
Multipole approximations                    ... NOT USED
Finite Nucleus Model                        ... NOT USED
CABS basis                                  ... NOT available
Auxiliary Coulomb fitting basis             ... AVAILABLE
   # of basis functions in Aux-J            ...    284
   # of shells in Aux-J                     ...    100
   Maximum angular momentum in Aux-J        ...      4
Auxiliary J/K fitting basis                 ... NOT available
Auxiliary Correlation fitting basis         ... NOT available
Auxiliary 'external' fitting basis          ... NOT available

Checking pre-screening integrals            ... done (  0.0 sec) Dimension = 76
Check shell pair data                       ... done (  0.0 sec)
Shell pair information
Shell pair cut-off parameter TPreSel        ...   2.5e-12
Total number of shell pairs                 ...      2926
Shell pairs after pre-screening             ...      2860
Total number of primitive shell pairs       ...      8368
Primitive shell pairs kept                  ...      6714
          la=0 lb=0:    940 shell pairs
          la=1 lb=0:    864 shell pairs
          la=1 lb=1:    210 shell pairs
          la=2 lb=0:    352 shell pairs
          la=2 lb=1:    160 shell pairs
          la=2 lb=2:     36 shell pairs
          la=3 lb=0:    176 shell pairs
          la=3 lb=1:     80 shell pairs
          la=3 lb=2:     32 shell pairs
          la=3 lb=3:     10 shell pairs

Calculating one electron integrals          ... done (  0.0 sec)
Calculating RI/J V-Matrix + Cholesky decomp.... done (  0.0 sec)
Calculating Nuclear repulsion               ... done (  0.0 sec) ENN=    119.889936103168 Eh

Diagonalization of the overlap matrix:
Smallest eigenvalue                        ... 1.302e-04
Time for diagonalization                   ...    0.011 sec
Threshold for overlap eigenvalues          ... 1.000e-07
Number of eigenvalues below threshold      ... 0
Time for construction of square roots      ...    0.010 sec
Total time needed                          ...    0.036 sec

-------------------
DFT GRID GENERATION
-------------------

General Integration Accuracy     IntAcc      ... 4.388
Radial Grid Type                 RadialGrid  ... OptM3 with GC (2021)
Angular Grid (max. ang.)         AngularGrid ... 4 (Lebedev-302)
Angular grid pruning method      GridPruning ... 4 (adaptive)
Weight generation scheme         WeightScheme... mBecke (2022)
Basis function cutoff            BFCut       ... 1.0000e-11
Integration weight cutoff        WCut        ... 1.0000e-14
Partially contracted basis set               ... off
Rotationally invariant grid construction     ... off
Angular grids for H and He will be reduced by one unit

Total number of grid points                  ...    50101
Total number of batches                      ...      789
Average number of points per batch           ...       63
Average number of grid points per atom       ...     4175

--------------------
COSX GRID GENERATION
--------------------

GRIDX 1
-------
General Integration Accuracy     IntAcc      ... 3.816
Radial Grid Type                 RadialGrid  ... OptM3 with GC (2021)
Angular Grid (max. ang.)         AngularGrid ... 1 (Lebedev-50)
Angular grid pruning method      GridPruning ... 4 (adaptive)
Weight generation scheme         WeightScheme... mBecke (2022)
Basis function cutoff            BFCut       ... 1.0000e-11
Integration weight cutoff        WCut        ... 1.0000e-14
Partially contracted basis set               ... on
Rotationally invariant grid construction     ... off
Angular grids for H and He will be reduced by one unit

Total number of grid points                  ...     6463
Total number of batches                      ...       58
Average number of points per batch           ...      111
Average number of grid points per atom       ...      539
UseSFitting                                  ... on

GRIDX 2
-------
General Integration Accuracy     IntAcc      ... 4.020
Radial Grid Type                 RadialGrid  ... OptM3 with GC (2021)
Angular Grid (max. ang.)         AngularGrid ... 2 (Lebedev-110)
Angular grid pruning method      GridPruning ... 4 (adaptive)
Weight generation scheme         WeightScheme... mBecke (2022)
Basis function cutoff            BFCut       ... 1.0000e-11
Integration weight cutoff        WCut        ... 1.0000e-14
Partially contracted basis set               ... on
Rotationally invariant grid construction     ... off
Angular grids for H and He will be reduced by one unit

Total number of grid points                  ...    13490
Total number of batches                      ...      112
Average number of points per batch           ...      120
Average number of grid points per atom       ...     1124
UseSFitting                                  ... on

GRIDX 3
-------
General Integration Accuracy     IntAcc      ... 4.338
Radial Grid Type                 RadialGrid  ... OptM3 with GC (2021)
Angular Grid (max. ang.)         AngularGrid ... 3 (Lebedev-194)
Angular grid pruning method      GridPruning ... 4 (adaptive)
Weight generation scheme         WeightScheme... mBecke (2022)
Basis function cutoff            BFCut       ... 1.0000e-11
Integration weight cutoff        WCut        ... 1.0000e-14
Partially contracted basis set               ... on
Rotationally invariant grid construction     ... off
Angular grids for H and He will be reduced by one unit

Total number of grid points                  ...    29539
Total number of batches                      ...      238
Average number of points per batch           ...      124
Average number of grid points per atom       ...     2462
UseSFitting                                  ... on
Initializing property integral containers    ... done (  0.0 sec)

SHARK setup successfully completed in   2.3 seconds

Maximum memory used throughout the entire STARTUP-calculation: 17.2 MB


           ************************************************************
           *        Program running with 4 parallel MPI-processes     *
           *              working on a common directory               *
           ************************************************************
-------------------------------------------------------------------------------
                                 ORCA GUESS
                   Start orbitals & Density for SCF / CASSCF
-------------------------------------------------------------------------------

------------
SCF SETTINGS
------------
Hamiltonian:
 Density Functional     Method          .... DFT(GTOs)
 Exchange Functional    Exchange        .... B88
   X-Alpha parameter    XAlpha          ....  0.666667
   Becke's b parameter  XBeta           ....  0.004200
 Correlation Functional Correlation     .... LYP
 LDA part of GGA corr.  LDAOpt          .... VWN-5
 Gradients option       PostSCFGGA      .... off
 Hybrid DFT is turned on
   Fraction HF Exchange ScalHFX         ....  0.200000
   Scaling of DF-GGA-X  ScalDFX         ....  0.720000
   Scaling of DF-GGA-C  ScalDFC         ....  0.810000
   Scaling of DF-LDA-C  ScalLDAC        ....  1.000000
   Perturbative correction              ....  0.000000
   NL short-range parameter             ....  4.800000
 RI-approximation to the Coulomb term is turned on
   Number of AuxJ basis functions       .... 284
   RIJ-COSX (HFX calculated with COS-X)).... on


General Settings:
 Integral files         IntName         .... gem
 Hartree-Fock type      HFTyp           .... RHF
 Total Charge           Charge          ....    0
 Multiplicity           Mult            ....    1
 Number of Electrons    NEL             ....   32
 Basis Dimension        Dim             ....  172
 Nuclear Repulsion      ENuc            ....    119.8899361032 Eh

Convergence Acceleration:
 AO-DIIS                CNVDIIS         .... on
   Start iteration      DIISMaxIt       ....    12
   Startup error        DIISStart       ....  0.200000
   # of expansion vecs  DIISMaxEq       ....     5
   Bias factor          DIISBfac        ....   1.050
   Max. coefficient     DIISMaxC        ....  10.000
 MO-DIIS                CNVKDIIS        .... off
 Trust-Rad. Augm. Hess. CNVTRAH         .... auto
   Auto Start mean grad. ratio tolernc. ....  1.125000
   Auto Start start iteration           ....    50
   Auto Start num. interpolation iter.  ....    10
   Max. Number of Micro iterations      ....    24
   Max. Number of Macro iterations      .... Maxiter - #DIIS iter
   Number of Davidson start vectors     ....     2
   Converg. threshold    (grad. norm)   ....   1.000e-05
   Grad. Scal. Fac. for Micro threshold ....   0.100
   Minimum threshold for Micro iter.    ....   1.000e-02
   NR start threshold (gradient norm)   ....   1.000e-04
   Initial trust radius                 ....   0.400
   Minimum AH scaling param. (alpha)    ....   1.000
   Maximum AH scaling param. (alpha)    .... 1000.000
   Quad. conv. algorithm                .... NR
   White noise on init. David. guess    .... on
   Maximum white noise                  ....   0.010
   Pseudo random numbers                .... off
   Inactive MOs                         .... canonical
   Orbital update algorithm             .... Taylor
   Preconditioner                       .... Diag
   Full preconditioner red. dimension   ....   250
 SOSCF                  CNVSOSCF        .... on
   Start iteration      SOSCFMaxIt      ....   150
   Startup grad/error   SOSCFStart      ....  0.003300
   Hessian update       SOSCFHessUp     .... L-BFGS
 Level Shifting         CNVShift        .... on
   Level shift para.    LevelShift      ....    0.2500
   Turn off err/grad.   ShiftErr        ....    0.0010
 Zerner damping         CNVZerner       .... off
 Static damping         CNVDamp         .... on
   Fraction old density DampFac         ....    0.7000
   Max. Damping (<1)    DampMax         ....    0.9800
   Min. Damping (>=0)   DampMin         ....    0.0000
   Turn off err/grad.   DampErr         ....    0.1000

SCF Procedure:
 Maximum # iterations   MaxIter         ....   125
 SCF integral mode      SCFMode         .... Direct
   Integral package                     .... SHARK and LIBINT hybrid scheme
 Reset frequency        DirectResetFreq ....    20
 Integral Threshold     Thresh          ....  2.500e-11 Eh
 Primitive CutOff       TCut            ....  2.500e-12 Eh

Convergence Tolerance:
 Convergence Check Mode ConvCheckMode   .... Total+1el-Energy
 Convergence forced     ConvForced      .... 0
 Energy Change          TolE            ....  1.000e-08 Eh
 1-El. energy change                    ....  1.000e-05 Eh
 Orbital Gradient       TolG            ....  1.000e-05
 Orbital Rotation angle TolX            ....  1.000e-05
 DIIS Error             TolErr          ....  5.000e-07

------------------------------
INITIAL GUESS: MODEL POTENTIAL
------------------------------
Loading Hartree-Fock densities                     ... done
Calculating cut-offs                               ... done
Initializing the effective Hamiltonian             ... done
Setting up the integral package (SHARK)            ... done
Starting the Coulomb interaction                   ... done (   0.1 sec)
Making the grid                                    ... done (   0.2 sec)
Mapping shells                                     ... done
Starting the XC term evaluation                    ... done (   0.1 sec)
  promolecular density results
     # of electrons  =     31.995146645
     EX              =    -22.914259116
     EC              =     -1.006342779
     EX+EC           =    -23.920601895
Transforming the Hamiltonian                       ... done (   0.0 sec)
Diagonalizing the Hamiltonian                      ... done (   0.0 sec)
Back transforming the eigenvectors                 ... done (   0.0 sec)
Now organizing SCF variables                       ... done
                      ------------------
                      INITIAL GUESS DONE (   0.5 sec)
                      ------------------
             **** ENERGY FILE WAS UPDATED (gem.en.tmp) ****
Finished Guess after   1.0 sec
Maximum memory used throughout the entire GUESS-calculation: 11.0 MB


           ************************************************************
           *        Program running with 4 parallel MPI-processes     *
           *              working on a common directory               *
           ************************************************************

-------------------------------------------------------------------------------------------
                                      ORCA LEAN-SCF
                              memory conserving SCF solver
-------------------------------------------------------------------------------------------

----------------------------------------D-I-I-S--------------------------------------------
Iteration    Energy (Eh)           Delta-E    RMSDP     MaxDP     DIISErr   Damp  Time(sec)
-------------------------------------------------------------------------------------------
               ***  Starting incremental Fock matrix formation  ***
    1    -156.9910269722420253     0.00e+00  1.71e-03  3.89e-02  1.92e-01  0.700   2.6
    2    -157.0763162705530362    -8.53e-02  1.27e-03  2.30e-02  1.01e-01  0.700   1.6
                               ***Turning on AO-DIIS***
    3    -157.1117075857497980    -3.54e-02  5.42e-04  9.01e-03  3.93e-02  0.700   1.6
    4    -157.1316055243804044    -1.99e-02  8.65e-04  2.16e-02  1.94e-02  0.000   1.5
    5    -157.1744032741702881    -4.28e-02  2.60e-04  5.55e-03  7.13e-03  0.000   1.5
                              *** Initializing SOSCF ***
---------------------------------------S-O-S-C-F--------------------------------------
Iteration    Energy (Eh)           Delta-E    RMSDP     MaxDP     MaxGrad    Time(sec)
--------------------------------------------------------------------------------------
    6    -157.1747012899395486    -2.98e-04  1.24e-04  2.69e-03  1.64e-03     1.5
               *** Restarting incremental Fock matrix formation ***
    7    -157.1747360620013865    -3.48e-05  8.83e-05  1.88e-03  4.91e-04     2.5
    8    -157.1747336343887582     2.43e-06  2.08e-05  5.77e-04  8.55e-04     2.1
    9    -157.1747386928921628    -5.06e-06  8.78e-06  1.77e-04  5.26e-05     2.0
   10    -157.1747386618843620     3.10e-08  3.78e-06  6.45e-05  6.28e-05     1.9
   11    -157.1747387823202757    -1.20e-07  2.79e-07  4.47e-06  1.75e-06     1.9
                  *** Gradient check signals convergence ***

               *****************************************************
               *                     SUCCESS                       *
               *           SCF CONVERGED AFTER  11 CYCLES          *
               *****************************************************

Recomputing exchange energy using gridx3       ... done (    3.536 sec)
Old exchange energy                            :     -4.712680293 Eh
New exchange energy                            :     -4.712675007 Eh
Exchange energy change after final integration :      0.000005285 Eh
Total energy after final integration           :   -157.174733497 Eh
             **** ENERGY FILE WAS UPDATED (gem.en.tmp) ****

----------------
TOTAL SCF ENERGY
----------------

Total Energy       :       -157.17473349692520 Eh           -4276.94193 eV

Components:
Nuclear Repulsion  :        119.88993610316818 Eh            3262.37102 eV
Electronic Energy  :       -277.06467488548844 Eh           -7539.31309 eV
One Electron Energy:       -447.07099885240319 Eh          -12165.42036 eV
Two Electron Energy:        170.00632396691475 Eh            4626.10726 eV

Virial components:
Potential Energy   :       -313.55538308690973 Eh           -8532.27575 eV
Kinetic Energy     :        156.38064958998453 Eh            4255.33381 eV
Virial Ratio       :          2.00507789108833

DFT components:
N(Alpha)           :       15.999989175102 electrons
N(Beta)            :       15.999989175102 electrons
N(Total)           :       31.999978350205 electrons
E(X)               :      -18.681022727684 Eh       
E(C)               :       -1.201343443367 Eh       
E(XC)              :      -19.882366171051 Eh       

---------------
SCF CONVERGENCE
---------------

  Last Energy change         ...    1.2044e-07  Tolerance :   1.0000e-08
  Last MAX-Density change    ...    4.4729e-06  Tolerance :   1.0000e-07
  Last RMS-Density change    ...    2.7885e-07  Tolerance :   5.0000e-09
  Last DIIS Error            ...    1.6384e-03  Tolerance :   5.0000e-07
  Last Orbital Gradient      ...    1.7549e-06  Tolerance :   1.0000e-05
  Last Orbital Rotation      ...    3.1544e-06  Tolerance :   1.0000e-05


----------------
ORBITAL ENERGIES
----------------

  NO   OCC          E(Eh)            E(eV) 
   0   2.0000     -10.177706      -276.9494 
   1   2.0000     -10.162083      -276.5243 
   2   2.0000     -10.162058      -276.5237 
   3   2.0000     -10.149450      -276.1806 
   4   2.0000      -0.806444       -21.9445 
   5   2.0000      -0.692563       -18.8456 
   6   2.0000      -0.679200       -18.4820 
   7   2.0000      -0.523116       -14.2347 
   8   2.0000      -0.453165       -12.3313 
   9   2.0000      -0.444628       -12.0989 
  10   2.0000      -0.432575       -11.7710 
  11   2.0000      -0.386331       -10.5126 
  12   2.0000      -0.370753       -10.0887 
  13   2.0000      -0.366096        -9.9620 
  14   2.0000      -0.339075        -9.2267 
  15   2.0000      -0.247847        -6.7442 
  16   0.0000       0.014496         0.3945 
  17   0.0000       0.037896         1.0312 
  18   0.0000       0.082884         2.2554 
  19   0.0000       0.086511         2.3541 
  20   0.0000       0.098531         2.6812 
  21   0.0000       0.112047         3.0490 
  22   0.0000       0.119721         3.2578 
  23   0.0000       0.141048         3.8381 
  24   0.0000       0.145400         3.9565 
  25   0.0000       0.166453         4.5294 
  26   0.0000       0.167430         4.5560 
*Only the first 10 virtual orbitals were printed.

                    ********************************
                    * MULLIKEN POPULATION ANALYSIS *
                    ********************************

-----------------------
MULLIKEN ATOMIC CHARGES
-----------------------
   0 C :   -0.275569
   1 C :    0.068816
   2 C :   -0.314959
   3 C :   -0.315327
   4 H :    0.107929
   5 H :    0.105408
   6 H :    0.107946
   7 H :    0.097156
   8 H :    0.097121
   9 H :    0.107939
  10 H :    0.105448
  11 H :    0.108093
Sum of atomic charges:    0.0000000

--------------------------------
MULLIKEN REDUCED ORBITAL CHARGES
--------------------------------
  0 C s       :     3.257671  s :     3.257671
      pz      :     1.043273  p :     2.969734
      px      :     0.920133
      py      :     1.006329
      dz2     :     0.004226  d :     0.043163
      dxz     :     0.009260
      dyz     :     0.003973
      dx2y2   :     0.010228
      dxy     :     0.015475
      f0      :     0.000771  f :     0.005001
      f+1     :     0.000552
      f-1     :     0.000404
      f+2     :     0.000862
      f-2     :     0.000405
      f+3     :     0.000885
      f-3     :     0.001122

  1 C s       :     3.195853  s :     3.195853
      pz      :     0.874790  p :     2.597109
      px      :     0.880948
      py      :     0.841371
      dz2     :     0.011444  d :     0.128657
      dxz     :     0.033266
      dyz     :     0.016277
      dx2y2   :     0.029393
      dxy     :     0.038276
      f0      :     0.000971  f :     0.009565
      f+1     :     0.000858
      f-1     :     0.000972
      f+2     :     0.001254
      f-2     :     0.001332
      f+3     :     0.002369
      f-3     :     0.001809

  2 C s       :     3.276532  s :     3.276532
      pz      :     1.010866  p :     2.989375
      px      :     1.047090
      py      :     0.931419
      dz2     :     0.008813  d :     0.045552
      dxz     :     0.008163
      dyz     :     0.009277
      dx2y2   :     0.006063
      dxy     :     0.013236
      f0      :     0.000176  f :     0.003500
      f+1     :     0.000511
      f-1     :     0.000504
      f+2     :     0.000379
      f-2     :     0.000775
      f+3     :     0.000342
      f-3     :     0.000812

  3 C s       :     3.276782  s :     3.276782
      pz      :     1.030304  p :     2.989489
      px      :     0.964942
      py      :     0.994243
      dz2     :     0.002443  d :     0.045555
      dxz     :     0.016603
      dyz     :     0.006698
      dx2y2   :     0.012398
      dxy     :     0.007413
      f0      :     0.000270  f :     0.003501
      f+1     :     0.000671
      f-1     :     0.000082
      f+2     :     0.000196
      f-2     :     0.000980
      f+3     :     0.000757
      f-3     :     0.000546

  4 H s       :     0.870699  s :     0.870699
      pz      :     0.010675  p :     0.021372
      px      :     0.006266
      py      :     0.004431

  5 H s       :     0.873032  s :     0.873032
      pz      :     0.004706  p :     0.021560
      px      :     0.009685
      py      :     0.007169

  6 H s       :     0.870687  s :     0.870687
      pz      :     0.007018  p :     0.021367
      px      :     0.007343
      py      :     0.007006

  7 H s       :     0.880597  s :     0.880597
      pz      :     0.005456  p :     0.022247
      px      :     0.009630
      py      :     0.007161

  8 H s       :     0.880632  s :     0.880632
      pz      :     0.006813  p :     0.022247
      px      :     0.003897
      py      :     0.011537

  9 H s       :     0.870694  s :     0.870694
      pz      :     0.009747  p :     0.021367
      px      :     0.006839
      py      :     0.004781

 10 H s       :     0.872993  s :     0.872993
      pz      :     0.005863  p :     0.021560
      px      :     0.004738
      py      :     0.010959

 11 H s       :     0.870542  s :     0.870542
      pz      :     0.007673  p :     0.021365
      px      :     0.007982
      py      :     0.005710



                     *******************************
                     * LOEWDIN POPULATION ANALYSIS *
                     *******************************

----------------------
LOEWDIN ATOMIC CHARGES
----------------------
   0 C :   -0.208205
   1 C :   -0.256597
   2 C :   -0.259916
   3 C :   -0.259941
   4 H :    0.125065
   5 H :    0.123852
   6 H :    0.125055
   7 H :    0.118352
   8 H :    0.118336
   9 H :    0.125059
  10 H :    0.123846
  11 H :    0.125094

-------------------------------
LOEWDIN REDUCED ORBITAL CHARGES
-------------------------------
  0 C s       :     2.844931  s :     2.844931
      pz      :     1.001067  p :     3.096999
      px      :     1.077889
      py      :     1.018044
      dz2     :     0.017070  d :     0.238472
      dxz     :     0.035384
      dyz     :     0.018742
      dx2y2   :     0.074227
      dxy     :     0.093048
      f0      :     0.003146  f :     0.027803
      f+1     :     0.004018
      f-1     :     0.000728
      f+2     :     0.003911
      f-2     :     0.002937
      f+3     :     0.006604
      f-3     :     0.006460

  1 C s       :     2.745634  s :     2.745634
      pz      :     0.856588  p :     2.912133
      px      :     1.083284
      py      :     0.972262
      dz2     :     0.051900  d :     0.541270
      dxz     :     0.107642
      dyz     :     0.065919
      dx2y2   :     0.150919
      dxy     :     0.164890
      f0      :     0.004420  f :     0.057560
      f+1     :     0.005894
      f-1     :     0.004603
      f+2     :     0.006537
      f-2     :     0.008522
      f+3     :     0.015872
      f-3     :     0.011711

  2 C s       :     2.822523  s :     2.822523
      pz      :     1.058356  p :     3.155315
      px      :     1.060144
      py      :     1.036816
      dz2     :     0.043352  d :     0.256657
      dxz     :     0.049022
      dyz     :     0.049841
      dx2y2   :     0.035112
      dxy     :     0.079330
      f0      :     0.002257  f :     0.025420
      f+1     :     0.002834
      f-1     :     0.004476
      f+2     :     0.003452
      f-2     :     0.003718
      f+3     :     0.003053
      f-3     :     0.005630

  3 C s       :     2.822530  s :     2.822530
      pz      :     1.062816  p :     3.155341
      px      :     1.041291
      py      :     1.051234
      dz2     :     0.021207  d :     0.256652
      dxz     :     0.077389
      dyz     :     0.041811
      dx2y2   :     0.063002
      dxy     :     0.053244
      f0      :     0.002835  f :     0.025418
      f+1     :     0.004121
      f-1     :     0.002101
      f+2     :     0.002106
      f-2     :     0.004203
      f+3     :     0.006144
      f-3     :     0.003908

  4 H s       :     0.814875  s :     0.814875
      pz      :     0.028989  p :     0.060060
      px      :     0.018122
      py      :     0.012949

  5 H s       :     0.816130  s :     0.816130
      pz      :     0.013479  p :     0.060018
      px      :     0.028191
      py      :     0.018348

  6 H s       :     0.814890  s :     0.814890
      pz      :     0.020794  p :     0.060055
      px      :     0.021028
      py      :     0.018233

  7 H s       :     0.819888  s :     0.819888
      pz      :     0.015782  p :     0.061760
      px      :     0.024329
      py      :     0.021649

  8 H s       :     0.819901  s :     0.819901
      pz      :     0.018813  p :     0.061764
      px      :     0.011532
      py      :     0.031419

  9 H s       :     0.814884  s :     0.814884
      pz      :     0.028244  p :     0.060057
      px      :     0.018215
      py      :     0.013598

 10 H s       :     0.816138  s :     0.816138
      pz      :     0.016753  p :     0.060016
      px      :     0.014173
      py      :     0.029089

 11 H s       :     0.814850  s :     0.814850
      pz      :     0.021546  p :     0.060056
      px      :     0.021090
      py      :     0.017420



                      *****************************
                      * MAYER POPULATION ANALYSIS *
                      *****************************

  NA   - Mulliken gross atomic population
  ZA   - Total nuclear charge
  QA   - Mulliken gross atomic charge
  VA   - Mayer's total valence
  BVA  - Mayer's bonded valence
  FA   - Mayer's free valence

  ATOM       NA         ZA         QA         VA         BVA        FA
  0 C      6.2756     6.0000    -0.2756     3.9227     3.9227     0.0000
  1 C      5.9312     6.0000     0.0688     3.7617     3.7617     0.0000
  2 C      6.3150     6.0000    -0.3150     3.8646     3.8646     0.0000
  3 C      6.3153     6.0000    -0.3153     3.8645     3.8645    -0.0000
  4 H      0.8921     1.0000     0.1079     0.9635     0.9635     0.0000
  5 H      0.8946     1.0000     0.1054     0.9788     0.9788     0.0000
  6 H      0.8921     1.0000     0.1079     0.9635     0.9635     0.0000
  7 H      0.9028     1.0000     0.0972     0.9774     0.9774     0.0000
  8 H      0.9029     1.0000     0.0971     0.9774     0.9774     0.0000
  9 H      0.8921     1.0000     0.1079     0.9635     0.9635    -0.0000
 10 H      0.8946     1.0000     0.1054     0.9788     0.9788    -0.0000
 11 H      0.8919     1.0000     0.1081     0.9634     0.9634    -0.0000

  Mayer bond orders larger than 0.100000
B(  0-C ,  1-C ) :   1.8892 B(  0-C ,  7-H ) :   0.9655 B(  0-C ,  8-H ) :   0.9655 
B(  1-C ,  2-C ) :   0.9607 B(  1-C ,  3-C ) :   0.9607 B(  2-C ,  4-H ) :   0.9641 
B(  2-C ,  5-H ) :   0.9802 B(  2-C ,  6-H ) :   0.9642 B(  3-C ,  9-H ) :   0.9642 
B(  3-C , 10-H ) :   0.9803 B(  3-C , 11-H ) :   0.9641 

-------
TIMINGS
-------

Total SCF time: 0 days 0 hours 0 min 25 sec 

Total time                  ....      25.063 sec
Sum of individual times     ....      24.818 sec  ( 99.0%)

SCF preparation             ....       0.596 sec  (  2.4%)
Fock matrix formation       ....      23.473 sec  ( 93.7%)
  Startup                   ....       0.034 sec  (  0.1% of F)
  Split-RI-J                ....       1.536 sec  (  6.5% of F)
  Chain of spheres X        ....      16.692 sec  ( 71.1% of F)
  XC integration            ....       4.999 sec  ( 21.3% of F)
    XC Preparation          ....       0.000 sec  (  0.0% of XC)
    Basis function eval.    ....       1.493 sec  ( 29.9% of XC)
    Density eval.           ....       1.438 sec  ( 28.8% of XC)
    XC-Functional eval.     ....       0.192 sec  (  3.8% of XC)
    XC-Potential eval.      ....       1.491 sec  ( 29.8% of XC)
Diagonalization             ....       0.000 sec  (  0.0%)
Density matrix formation    ....       0.117 sec  (  0.5%)
Total Energy calculation    ....       0.038 sec  (  0.1%)
Population analysis         ....       0.048 sec  (  0.2%)
Orbital Transformation      ....       0.067 sec  (  0.3%)
Orbital Orthonormalization  ....       0.000 sec  (  0.0%)
DIIS solution               ....       0.325 sec  (  1.3%)
SOSCF solution              ....       0.154 sec  (  0.6%)
Finished LeanSCF after  25.1 sec

Maximum memory used throughout the entire LEANSCF-calculation: 16.1 MB


           ************************************************************
           *        Program running with 4 parallel MPI-processes     *
           *              working on a common directory               *
           ************************************************************

------------------------------------------------------------------------------
                         ORCA PROPERTY INTEGRAL CALCULATIONS
------------------------------------------------------------------------------

GBWName                                   ... gem.gbw
Number of atoms                           ...     12
Number of basis functions                 ...    172
Max core memory                           ...   1800 MB

Dipole integrals                          ... YES
Quadrupole integrals                      ...  NO
Linear momentum integrals                 ...  NO
Angular momentum integrals                ...  NO
Higher moments length integrals           ...  NO
Higher moments velocity integrals         ...  NO
Kinetic energy integrals                  ...  NO
GIAO right hand sides                     ...  NO
GIAO dipole derivative integrals          ...  NO
SOC integrals                             ...  NO
EPR diamagnetic integrals (GIAO)          ...  NO
EPR gauge integrals                       ...  NO
Field gradient integrals                  ...  NO (   0 nuclei)
Spin-dipole/Fermi contact integrals       ...  NO (   0 nuclei)
Contact density integrals                 ...  NO (   0 nuclei)
Nucleus-orbit integrals                   ...  NO (   0 nuclei)
Geometric perturbations                   ...  NO (  12 nuclei)

Choice of electric origin   ... Center of mass
Position of electric origin ... ( -0.1716,  1.1333, -0.7796) 
Choice of magnetic origin   ... GIAO
Position of magnetic origin ... (  0.0000,  0.0000,  0.0000) 

Calculating integrals                     ... Electric Dipole (Length)     done (  0.0 sec)

Property integrals calculated in   0.0 sec

Maximum memory used throughout the entire PROPINT-calculation: 11.3 MB


-------------------------------------------------------------------------------
                          DFT DISPERSION CORRECTION                            
                                                                               
                                DFTD4 V3.4.0                                   
-------------------------------------------------------------------------------
The B3LYP functional is recognized
Active option DFTDOPT                   ...         5   

-------------------------   ----------------
Dispersion correction           -0.011412064
-------------------------   ----------------


-------------------------   --------------------
FINAL SINGLE POINT ENERGY      -157.186145560676
-------------------------   --------------------



           ************************************************************
           *        Program running with 4 parallel MPI-processes     *
           *              working on a common directory               *
           ************************************************************
------------------------------------------------------------------------------
                         ORCA SCF GRADIENT CALCULATION
------------------------------------------------------------------------------

Nuc. rep. gradient        (SHARK) ... done (  0.0 sec)
HCore & Overlap gradient  (SHARK) ... done (  0.1 sec)
Split-RIJ-J gradient      (SHARK) ... done (  0.7 sec)
COSX-gradient                     ... done ( 15.1 sec)
XC gradient                       ... done (  3.6 sec)
Dispersion correction             ... done (  0.1 sec)

-------------------
DISPERSION GRADIENT
-------------------

   1   C   :   -0.000469539    0.000139069    0.000102869
   2   C   :   -0.000020204    0.000005981    0.000004431
   3   C   :    0.000060086   -0.000405740   -0.000188654
   4   C   :    0.000330325    0.000290101    0.000103037
   5   H   :    0.000029749   -0.000110600   -0.000092591
   6   H   :   -0.000006309   -0.000106492   -0.000047554
   7   H   :    0.000035418   -0.000140464   -0.000026557
   8   H   :   -0.000135757    0.000016818    0.000019189
   9   H   :   -0.000119504    0.000058821    0.000036759
  10   H   :    0.000110466    0.000097121   -0.000005402
  11   H   :    0.000069170    0.000087932    0.000033759
  12   H   :    0.000116099    0.000067453    0.000060714

Difference to translation invariance:
           :    0.0000000000    0.0000000000    0.0000000000

Difference to rotation invariance:
           :    0.0000000000   -0.0000000000    0.0000000000

Norm of the Dispersion gradient    ...    0.0009004441
RMS gradient                       ...    0.0001500740
MAX gradient                       ...    0.0004695391

------------------
CARTESIAN GRADIENT
------------------

   1   C   :   -0.000029635    0.000013177   -0.000004171
   2   C   :   -0.000023228    0.000002239    0.000015026
   3   C   :    0.000041838   -0.000011263   -0.000002228
   4   C   :    0.000038802   -0.000013206   -0.000005840
   5   H   :   -0.000002382   -0.000000241    0.000001677
   6   H   :   -0.000017464    0.000000747    0.000004859
   7   H   :    0.000005116    0.000006414   -0.000005764
   8   H   :   -0.000003777   -0.000008634   -0.000001136
   9   H   :    0.000003715    0.000009602    0.000003262
  10   H   :    0.000001179   -0.000003994    0.000001713
  11   H   :   -0.000014950    0.000008213    0.000002110
  12   H   :    0.000000787   -0.000003053   -0.000009509

Difference to translation invariance:
           :   -0.0000000000   -0.0000000000    0.0000000000

Difference to rotation invariance:
           :   -0.0000302339    0.0000217909   -0.0000113427

Norm of the Cartesian gradient     ...    0.0000806038
RMS gradient                       ...    0.0000134340
MAX gradient                       ...    0.0000418377

-------
TIMINGS
-------

Total SCF gradient time     ....       19.661 sec

Densities                   ....       0.001 sec  (  0.0%)
One electron gradient       ....       0.112 sec  (  0.6%)
RI-J Coulomb gradient       ....       0.695 sec  (  3.5%)
COSX gradient               ....      15.116 sec  ( 76.9%)
XC gradient                 ....       3.640 sec  ( 18.5%)

Maximum memory used throughout the entire SCFGRAD-calculation: 29.8 MB
------------------------------------------------------------------------------
                         ORCA GEOMETRY RELAXATION STEP
------------------------------------------------------------------------------

Reading the OPT-File                    .... done
Getting information on internals        .... done
Copying old internal coords+grads       .... done
Making the new internal coordinates     .... (2022 redundants) done
Validating the new internal coordinates .... (2022 redundants) done
Calculating the B-matrix                .... done
Calculating the G,G- and P matrices     .... done
Transforming gradient to internals      .... done
Projecting the internal gradient        .... done
Number of atoms                         ....  12
Number of internal coordinates          ....  43
Current Energy                          ....  -157.186145561 Eh
Current gradient norm                   ....     0.000080604 Eh/bohr
Maximum allowed component of the step   ....  0.300
Current trust radius                    ....  0.300
Evaluating the initial hessian          ....  (Almloef) done
Projecting the Hessian                  .... done
Forming the augmented Hessian           .... done
Diagonalizing the augmented Hessian     .... done
Last element of RFO vector              ....  0.999999625
Lowest eigenvalues of augmented Hessian:
 -0.000000022  0.012631070  0.012632330  0.022475207  0.043367109
Length of the computed step             ....  0.000865912
The final length of the internal step   ....  0.000865912
Converting the step to Cartesian space:
 Initial RMS(Int)=    0.0001320503
Transforming coordinates:
 Iter   0:  RMS(Cart)=    0.0001958195 RMS(Int)=    0.0001320509
done
Storing new coordinates                 .... done

                                .--------------------.
          ----------------------|Geometry convergence|-------------------------
          Item                value                   Tolerance       Converged
          ---------------------------------------------------------------------
          RMS gradient        0.0000109813            0.0001000000      YES
          MAX gradient        0.0000400568            0.0003000000      YES
          RMS step            0.0001320503            0.0020000000      YES
          MAX step            0.0004033449            0.0040000000      YES
          ........................................................
          Max(Bonds)      0.0000      Max(Angles)    0.01
          Max(Dihed)        0.02      Max(Improp)    0.00
          ---------------------------------------------------------------------

                    ***********************HURRAY********************
                    ***        THE OPTIMIZATION HAS CONVERGED     ***
                    *************************************************


    ---------------------------------------------------------------------------
                         Redundant Internal Coordinates

                          --- Optimized Parameters ---  
                            (Angstroem and degrees)

        Definition                    OldVal   dE/dq     Step     FinalVal
    ----------------------------------------------------------------------------
     1. B(C   1,C   0)                1.3306  0.000031 -0.0000    1.3306   
     2. B(C   2,C   1)                1.5026  0.000010 -0.0000    1.5026   
     3. B(C   3,C   1)                1.5026  0.000011 -0.0000    1.5026   
     4. B(H   4,C   2)                1.0948 -0.000002  0.0000    1.0948   
     5. B(H   5,C   2)                1.0900  0.000013 -0.0000    1.0900   
     6. B(H   6,C   2)                1.0948 -0.000004  0.0000    1.0948   
     7. B(H   7,C   0)                1.0835  0.000009 -0.0000    1.0835   
     8. B(H   8,C   0)                1.0835  0.000009 -0.0000    1.0834   
     9. B(H   9,C   3)                1.0948 -0.000003  0.0000    1.0948   
    10. B(H  10,C   3)                1.0900  0.000013 -0.0000    1.0900   
    11. B(H  11,C   3)                1.0948 -0.000003  0.0000    1.0948   
    12. A(H   7,C   0,H   8)          116.87  0.000007   -0.00    116.87   
    13. A(C   1,C   0,H   8)          121.57 -0.000004    0.00    121.57   
    14. A(C   1,C   0,H   7)          121.56 -0.000003    0.00    121.56   
    15. A(C   0,C   1,C   3)          122.22  0.000020   -0.00    122.21   
    16. A(C   2,C   1,C   3)          115.58 -0.000040    0.01    115.59   
    17. A(C   0,C   1,C   2)          122.20  0.000020   -0.00    122.20   
    18. A(C   1,C   2,H   6)          110.81  0.000003   -0.00    110.81   
    19. A(H   4,C   2,H   5)          108.35  0.000007   -0.00    108.35   
    20. A(C   1,C   2,H   5)          111.83 -0.000015    0.00    111.83   
    21. A(H   5,C   2,H   6)          108.35  0.000010   -0.00    108.35   
    22. A(C   1,C   2,H   4)          110.78 -0.000000    0.00    110.78   
    23. A(H   4,C   2,H   6)          106.53 -0.000004    0.00    106.53   
    24. A(H   9,C   3,H  10)          108.35  0.000007   -0.00    108.34   
    25. A(C   1,C   3,H  10)          111.85 -0.000016    0.00    111.85   
    26. A(C   1,C   3,H   9)          110.79  0.000003   -0.00    110.79   
    27. A(H  10,C   3,H  11)          108.34  0.000011   -0.00    108.34   
    28. A(H   9,C   3,H  11)          106.52 -0.000004    0.00    106.53   
    29. A(C   1,C   3,H  11)          110.79 -0.000001    0.00    110.79   
    30. D(C   3,C   1,C   0,H   7)   -180.00  0.000001    0.00   -180.00   
    31. D(C   2,C   1,C   0,H   8)   -179.99  0.000000   -0.00   -179.99   
    32. D(C   2,C   1,C   0,H   7)      0.02  0.000001   -0.00      0.02   
    33. D(C   3,C   1,C   0,H   8)     -0.00  0.000000    0.00     -0.00   
    34. D(H   4,C   2,C   1,C   3)    -59.10 -0.000005    0.02    -59.08   
    35. D(H   4,C   2,C   1,C   0)    120.89 -0.000005    0.02    120.91   
    36. D(H   6,C   2,C   1,C   0)   -121.10 -0.000008    0.02   -121.08   
    37. D(H   5,C   2,C   1,C   3)    179.92 -0.000002    0.02    179.93   
    38. D(H   5,C   2,C   1,C   0)     -0.10 -0.000003    0.02     -0.08   
    39. D(H  11,C   3,C   1,C   0)    120.81  0.000004   -0.01    120.80   
    40. D(H  10,C   3,C   1,C   2)    179.80  0.000000   -0.00    179.79   
    41. D(H  10,C   3,C   1,C   0)     -0.19  0.000001   -0.01     -0.19   
    42. D(H   9,C   3,C   1,C   2)     58.80  0.000000   -0.00     58.80   
    43. D(H   9,C   3,C   1,C   0)   -121.18  0.000001   -0.01   -121.19   
    ----------------------------------------------------------------------------

Geometry step timings:
Preparation and reading OPT file:      0.001 s (10.894 %)
Internal coordinates            :      0.000 s ( 0.427 %)
B/P matrices and projection     :      0.001 s (10.029 %)
Hessian update/contruction      :      0.004 s (40.836 %)
Making the step                 :      0.001 s ( 7.132 %)
Converting the step to Cartesian:      0.000 s ( 1.202 %)
Storing new data                :      0.001 s ( 8.715 %)
Checking convergence            :      0.000 s ( 0.045 %)
Final printing                  :      0.002 s (20.642 %)
Total time                      :      0.009 s
                 *******************************************************
                 *** FINAL ENERGY EVALUATION AT THE STATIONARY POINT ***
                 ***               (AFTER    1 CYCLES)               ***
                 *******************************************************
---------------------------------
CARTESIAN COORDINATES (ANGSTROEM)
---------------------------------
  C     -1.433267    0.997450   -0.118267
  C     -0.184713    0.627585   -0.391839
  C      0.138091   -0.699051   -1.019303
  C      0.995290    1.508926   -0.094078
  H      0.665479   -0.561633   -1.968772
  H     -0.759793   -1.287635   -1.207490
  H      0.803732   -1.282352   -0.374905
  H     -2.276433    0.353296   -0.337456
  H     -1.654452    1.956728    0.334199
  H      1.558241    1.726360   -1.007498
  H      0.692205    2.454553    0.355405
  H      1.690481    1.010015    0.588854

----------------------------
CARTESIAN COORDINATES (A.U.)
----------------------------
  NO LB      ZA    FRAG     MASS         X           Y           Z
   0 C     6.0000    0    12.011   -2.708483    1.884907   -0.223492
   1 C     6.0000    0    12.011   -0.349058    1.185963   -0.740468
   2 C     6.0000    0    12.011    0.260954   -1.321015   -1.926203
   3 C     6.0000    0    12.011    1.880826    2.851457   -0.177781
   4 H     1.0000    0     1.008    1.257573   -1.061333   -3.720440
   5 H     1.0000    0     1.008   -1.435802   -2.433278   -2.281826
   6 H     1.0000    0     1.008    1.518833   -2.423294   -0.708469
   7 H     1.0000    0     1.008   -4.301834    0.667632   -0.637700
   8 H     1.0000    0     1.008   -3.126461    3.697680    0.631545
   9 H     1.0000    0     1.008    2.944649    3.262348   -1.903895
  10 H     1.0000    0     1.008    1.308077    4.638432    0.671618
  11 H     1.0000    0     1.008    3.194546    1.908651    1.112774

--------------------------------
INTERNAL COORDINATES (ANGSTROEM)
--------------------------------
 C      0   0   0     0.000000000000     0.00000000     0.00000000
 C      1   0   0     1.330611969482     0.00000000     0.00000000
 C      2   1   0     1.502623249269   122.19776584     0.00000000
 C      2   1   3     1.502608756746   122.21472362   179.98478049
 H      3   2   1     1.094766300292   110.78282915   120.90770596
 H      3   2   1     1.089973371514   111.83175833   359.91965748
 H      3   2   1     1.094790363427   110.80715644   238.92315371
 H      1   2   3     1.083469416637   121.55823722     0.00000000
 H      1   2   3     1.083449674653   121.56929254   180.01160213
 H      4   2   1     1.094772711235   110.79184639   238.81126091
 H      4   2   1     1.090002317537   111.85171660   359.80810047
 H      4   2   1     1.094805596711   110.79228888   120.80081770

---------------------------
INTERNAL COORDINATES (A.U.)
---------------------------
 C      0   0   0     0.000000000000     0.00000000     0.00000000
 C      1   0   0     2.514492212838     0.00000000     0.00000000
 C      2   1   0     2.839546423580   122.19776584     0.00000000
 C      2   1   3     2.839519036682   122.21472362   179.98478049
 H      3   2   1     2.068808488197   110.78282915   120.90770596
 H      3   2   1     2.059751165429   111.83175833   359.91965748
 H      3   2   1     2.068853960933   110.80715644   238.92315371
 H      1   2   3     2.047460471924   121.55823722     0.00000000
 H      1   2   3     2.047423164980   121.56929254   180.01160213
 H      4   2   1     2.068820603125   110.79184639   238.81126091
 H      4   2   1     2.059805865484   111.85171660   359.80810047
 H      4   2   1     2.068882747667   110.79228888   120.80081770

---------------------
BASIS SET INFORMATION
---------------------
There are 2 groups of distinct atoms

 Group   1 Type C   : 11s6p2d1f contracted to 5s3p2d1f pattern {62111/411/11/1}
 Group   2 Type H   : 5s1p contracted to 3s1p pattern {311/1}

Atom   0C    basis set group =>   1
Atom   1C    basis set group =>   1
Atom   2C    basis set group =>   1
Atom   3C    basis set group =>   1
Atom   4H    basis set group =>   2
Atom   5H    basis set group =>   2
Atom   6H    basis set group =>   2
Atom   7H    basis set group =>   2
Atom   8H    basis set group =>   2
Atom   9H    basis set group =>   2
Atom  10H    basis set group =>   2
Atom  11H    basis set group =>   2
---------------------------------
AUXILIARY/J BASIS SET INFORMATION
---------------------------------
There are 2 groups of distinct atoms

 Group   1 Type C   : 12s5p4d2f1g contracted to 6s4p3d1f1g pattern {711111/2111/211/2/1}
 Group   2 Type H   : 5s2p1d contracted to 3s1p1d pattern {311/2/1}

Atom   0C    basis set group =>   1
Atom   1C    basis set group =>   1
Atom   2C    basis set group =>   1
Atom   3C    basis set group =>   1
Atom   4H    basis set group =>   2
Atom   5H    basis set group =>   2
Atom   6H    basis set group =>   2
Atom   7H    basis set group =>   2
Atom   8H    basis set group =>   2
Atom   9H    basis set group =>   2
Atom  10H    basis set group =>   2
Atom  11H    basis set group =>   2


           ************************************************************
           *        Program running with 4 parallel MPI-processes     *
           *              working on a common directory               *
           ************************************************************
------------------------------------------------------------------------------
                             ORCA STARTUP CALCULATIONS
                           -- RI-GTO INTEGRALS CHOSEN --
------------------------------------------------------------------------------
------------------------------------------------------------------------------
                   ___                                                        
                  /   \      - P O W E R E D   B Y -                         
                 /     \                                                     
                 |  |  |   _    _      __       _____    __    __             
                 |  |  |  | |  | |    /  \     |  _  \  |  |  /  |          
                  \  \/   | |  | |   /    \    | | | |  |  | /  /          
                 / \  \   | |__| |  /  /\  \   | |_| |  |  |/  /          
                |  |  |   |  __  | /  /__\  \  |    /   |      \           
                |  |  |   | |  | | |   __   |  |    \   |  |\   \          
                \     /   | |  | | |  |  |  |  | |\  \  |  | \   \       
                 \___/    |_|  |_| |__|  |__|  |_| \__\ |__|  \__/        
                                                                              
                      - O R C A' S   B I G   F R I E N D -                    
                                      &                                       
                       - I N T E G R A L  F E E D E R -                       
                                                                              
 v1 FN, 2020, v2 2021, v3 2022-2024                                           
------------------------------------------------------------------------------


----------------------
SHARK INTEGRAL PACKAGE
----------------------

Number of atoms                             ...     12
Number of basis functions                   ...    172
Number of shells                            ...     76
Maximum angular momentum                    ...      3
Integral batch strategy                     ... SHARK/LIBINT Hybrid
RI-J (if used) integral strategy            ... SPLIT-RIJ (Revised 2003 algorithm where possible)
Printlevel                                  ...      1
Contraction scheme used                     ... SEGMENTED contraction
Prescreening option                         ... SCHWARTZ
   Thresh                                   ... 2.500e-11
   Tcut                                     ... 2.500e-12
   Tpresel                                  ... 2.500e-12 
Coulomb Range Separation                    ... NOT USED
Exchange Range Separation                   ... NOT USED
Multipole approximations                    ... NOT USED
Finite Nucleus Model                        ... NOT USED
CABS basis                                  ... NOT available
Auxiliary Coulomb fitting basis             ... AVAILABLE
   # of basis functions in Aux-J            ...    284
   # of shells in Aux-J                     ...    100
   Maximum angular momentum in Aux-J        ...      4
Auxiliary J/K fitting basis                 ... NOT available
Auxiliary Correlation fitting basis         ... NOT available
Auxiliary 'external' fitting basis          ... NOT available

Checking pre-screening integrals            ... done (  0.0 sec) Dimension = 76
Check shell pair data                       ... done (  0.0 sec)
Shell pair information
Shell pair cut-off parameter TPreSel        ...   2.5e-12
Total number of shell pairs                 ...      2926
Shell pairs after pre-screening             ...      2860
Total number of primitive shell pairs       ...      8368
Primitive shell pairs kept                  ...      6714
          la=0 lb=0:    940 shell pairs
          la=1 lb=0:    864 shell pairs
          la=1 lb=1:    210 shell pairs
          la=2 lb=0:    352 shell pairs
          la=2 lb=1:    160 shell pairs
          la=2 lb=2:     36 shell pairs
          la=3 lb=0:    176 shell pairs
          la=3 lb=1:     80 shell pairs
          la=3 lb=2:     32 shell pairs
          la=3 lb=3:     10 shell pairs

Calculating one electron integrals          ... done (  0.0 sec)
Calculating RI/J V-Matrix + Cholesky decomp.... done (  0.0 sec)
Calculating Nuclear repulsion               ... done (  0.0 sec) ENN=    119.890860930042 Eh

Diagonalization of the overlap matrix:
Smallest eigenvalue                        ... 1.301e-04
Time for diagonalization                   ...    0.011 sec
Threshold for overlap eigenvalues          ... 1.000e-07
Number of eigenvalues below threshold      ... 0
Time for construction of square roots      ...    0.009 sec
Total time needed                          ...    0.035 sec

-------------------
DFT GRID GENERATION
-------------------

General Integration Accuracy     IntAcc      ... 4.388
Radial Grid Type                 RadialGrid  ... OptM3 with GC (2021)
Angular Grid (max. ang.)         AngularGrid ... 4 (Lebedev-302)
Angular grid pruning method      GridPruning ... 4 (adaptive)
Weight generation scheme         WeightScheme... mBecke (2022)
Basis function cutoff            BFCut       ... 1.0000e-11
Integration weight cutoff        WCut        ... 1.0000e-14
Partially contracted basis set               ... off
Rotationally invariant grid construction     ... off
Angular grids for H and He will be reduced by one unit

Total number of grid points                  ...    50101
Total number of batches                      ...      789
Average number of points per batch           ...       63
Average number of grid points per atom       ...     4175

--------------------
COSX GRID GENERATION
--------------------

GRIDX 1
-------
General Integration Accuracy     IntAcc      ... 3.816
Radial Grid Type                 RadialGrid  ... OptM3 with GC (2021)
Angular Grid (max. ang.)         AngularGrid ... 1 (Lebedev-50)
Angular grid pruning method      GridPruning ... 4 (adaptive)
Weight generation scheme         WeightScheme... mBecke (2022)
Basis function cutoff            BFCut       ... 1.0000e-11
Integration weight cutoff        WCut        ... 1.0000e-14
Partially contracted basis set               ... on
Rotationally invariant grid construction     ... off
Angular grids for H and He will be reduced by one unit

Total number of grid points                  ...     6463
Total number of batches                      ...       58
Average number of points per batch           ...      111
Average number of grid points per atom       ...      539
UseSFitting                                  ... on

GRIDX 2
-------
General Integration Accuracy     IntAcc      ... 4.020
Radial Grid Type                 RadialGrid  ... OptM3 with GC (2021)
Angular Grid (max. ang.)         AngularGrid ... 2 (Lebedev-110)
Angular grid pruning method      GridPruning ... 4 (adaptive)
Weight generation scheme         WeightScheme... mBecke (2022)
Basis function cutoff            BFCut       ... 1.0000e-11
Integration weight cutoff        WCut        ... 1.0000e-14
Partially contracted basis set               ... on
Rotationally invariant grid construction     ... off
Angular grids for H and He will be reduced by one unit

Total number of grid points                  ...    13490
Total number of batches                      ...      112
Average number of points per batch           ...      120
Average number of grid points per atom       ...     1124
UseSFitting                                  ... on

GRIDX 3
-------
General Integration Accuracy     IntAcc      ... 4.338
Radial Grid Type                 RadialGrid  ... OptM3 with GC (2021)
Angular Grid (max. ang.)         AngularGrid ... 3 (Lebedev-194)
[...]
     18      -0.340585   0.206027  -0.298177  -0.102579   0.277070   0.277551
     19      -0.103944   0.281782  -0.107016   0.076849  -0.241878  -0.243344
     20       0.267515   0.070600   0.207390   0.143281   0.283294   0.282562
     21      -0.008151  -0.000019  -0.193140   0.052930  -0.000052   0.016511
     22       0.006764   0.002410   0.243523  -0.409655  -0.000394   0.014506
     23       0.003691  -0.007494   0.126492  -0.189672  -0.000167   0.005134
     24       0.014584   0.000529  -0.322725   0.327324  -0.000241   0.003023
     25       0.001925   0.003450  -0.090749   0.297195  -0.000220  -0.020284
     26      -0.000459  -0.006996  -0.013420   0.106243  -0.000078  -0.009416
     27       0.310091   0.018392  -0.248650  -0.173545  -0.227665   0.227039
     28      -0.299820   0.335362   0.268534   0.004279  -0.091257   0.091405
     29       0.126581   0.110979  -0.086589  -0.083145   0.393384  -0.389578
     30      -0.302106  -0.035275   0.307824   0.192853   0.082144  -0.080936
     31      -0.065504   0.203715   0.070620   0.060970  -0.223552   0.226804
     32      -0.007469  -0.453009   0.003461   0.011554  -0.107082   0.108424
     33       0.270359  -0.027225  -0.217488  -0.159213  -0.286254   0.285757
     34      -0.090113  -0.305284   0.096351  -0.068614   0.218523  -0.216128
     35      -0.349828  -0.168760   0.288451   0.081747  -0.295947   0.294221
                 30         31         32         33         34         35    
      0       0.000001  -0.000012  -0.000808  -0.005478   0.063581   0.033226
      1      -0.000003   0.000100  -0.002765   0.001504  -0.018684   0.085935
      2       0.000002  -0.000227  -0.001178   0.001147  -0.013873   0.036009
      3       0.000003  -0.000098  -0.000039   0.003739  -0.006981   0.000901
      4       0.000002   0.000523   0.000347  -0.001089   0.002071   0.002299
      5       0.000017  -0.001176   0.000158  -0.000812   0.001532   0.000961
      6      -0.005000  -0.005105   0.057218   0.061788   0.003381   0.001592
      7       0.026100   0.026566   0.022234   0.024435   0.002875   0.000143
      8      -0.057876  -0.059022   0.005049   0.005625   0.001010  -0.000074
      9       0.004815  -0.004677  -0.032517   0.029506   0.000688  -0.001170
     10      -0.026633   0.026002   0.052236  -0.048140  -0.004100   0.000978
     11       0.059208  -0.057741   0.026173  -0.024116  -0.001901   0.000535
     12      -0.245153  -0.250585  -0.070844  -0.078549   0.001909  -0.002972
     13      -0.062316  -0.061436  -0.021025  -0.021602  -0.001150  -0.000806
     14       0.423232   0.433578   0.151859   0.169192  -0.001162   0.003873
     15      -0.000556   0.000114  -0.522555  -0.563779  -0.044786  -0.013223
     16       0.006940   0.006394  -0.336954  -0.363966  -0.029448  -0.011728
     17      -0.014295  -0.012217  -0.107023  -0.115659  -0.009432  -0.004157
     18       0.305697   0.312012  -0.092711  -0.102635   0.001972  -0.003551
     19      -0.257887  -0.265320   0.094511   0.106387  -0.001507   0.002171
     20       0.285602   0.290408  -0.103963  -0.114372  -0.000396  -0.002695
     21      -0.000041  -0.000098   0.012474   0.037754  -0.540443  -0.550452
     22       0.000148  -0.000033   0.009696   0.033287  -0.427177  -0.413090
     23      -0.000355  -0.000132   0.003319   0.011812  -0.146955  -0.139735
     24       0.000034  -0.000022  -0.003762   0.006551  -0.131341   0.149967
     25      -0.000164   0.000134   0.018351  -0.045197   0.624367  -0.622321
     26       0.000353  -0.000045   0.008602  -0.020977   0.293438  -0.294102
     27       0.264128  -0.259780   0.087342  -0.083249   0.002421   0.002812
     28       0.092643  -0.092268   0.047116  -0.045602   0.000188   0.000281
     29      -0.419746   0.409674  -0.154747   0.145070  -0.000542  -0.004102
     30       0.000867  -0.000562   0.195704  -0.178818  -0.015137   0.002405
     31      -0.005605   0.004164  -0.592358   0.542403   0.047424  -0.016555
     32       0.015217  -0.012782  -0.282037   0.258229   0.022541  -0.007625
     33      -0.322823   0.316792   0.110113  -0.104380   0.002496   0.003340
     34       0.232603  -0.225443  -0.077894   0.071816  -0.000154  -0.002678
     35      -0.306111   0.299542   0.124117  -0.116953   0.000184   0.002515


-----------
IR SPECTRUM
-----------

 Mode   freq       eps      Int      T**2         TX        TY        TZ
       cm**-1   L/(mol*cm) km/mol    a.u.
----------------------------------------------------------------------------
  6:    172.69   0.000000    0.00  0.000000  (-0.000074 -0.000018  0.000046)
  7:    211.02   0.000098    0.49  0.000145  ( 0.000846 -0.004883  0.010965)
  8:    382.84   0.000058    0.29  0.000047  (-0.006452  0.001870  0.001512)
  9:    440.45   0.000327    1.65  0.000231  ( 0.005233  0.012697  0.006538)
 10:    442.08   0.001625    8.21  0.001147  (-0.002516  0.014352 -0.030573)
 11:    706.50   0.000000    0.00  0.000000  (-0.000001 -0.000001  0.000016)
 12:    817.58   0.000040    0.20  0.000015  ( 0.003649 -0.001075 -0.000790)
 13:    921.16   0.009447   47.74  0.003200  (-0.004379  0.023224 -0.051398)
 14:    963.15   0.000019    0.10  0.000006  (-0.000890 -0.002099 -0.000980)
 15:    989.18   0.000081    0.41  0.000026  ( 0.001675  0.004388  0.001856)
 16:   1022.77   0.000000    0.00  0.000000  (-0.000098 -0.000011  0.000063)
 17:   1086.56   0.000505    2.55  0.000145  ( 0.011305 -0.003357 -0.002469)
 18:   1108.41   0.000003    0.01  0.000001  ( 0.000021  0.000370 -0.000820)
 19:   1299.14   0.000631    3.19  0.000152  ( 0.004130  0.010685  0.004513)
 20:   1410.03   0.001752    8.85  0.000388  (-0.006619 -0.017095 -0.007185)
 21:   1415.26   0.000078    0.39  0.000017  (-0.003867  0.001168  0.000888)
 22:   1445.16   0.000307    1.55  0.000066  (-0.007641  0.002241  0.001686)
 23:   1470.67   0.000000    0.00  0.000000  ( 0.000095 -0.000028 -0.000140)
 24:   1482.64   0.000862    4.36  0.000182  (-0.004471 -0.011656 -0.005066)
 25:   1488.45   0.003451   17.44  0.000723  (-0.001981  0.011124 -0.024409)
 26:   1502.00   0.002808   14.19  0.000583  (-0.022691  0.006681  0.004895)
 27:   1716.86   0.004244   21.45  0.000771  ( 0.026055 -0.007718 -0.005742)
 28:   3009.15   0.003708   18.74  0.000385  ( 0.006647  0.017013  0.007133)
 29:   3014.92   0.008218   41.53  0.000851  (-0.027365  0.008185  0.005900)
 30:   3050.03   0.000001    0.00  0.000000  (-0.000069 -0.000135  0.000276)
 31:   3052.92   0.008415   42.53  0.000860  (-0.002188  0.011986 -0.026678)
 32:   3103.35   0.005295   26.76  0.000532  ( 0.006982  0.020273  0.008528)
 33:   3105.09   0.003801   19.21  0.000382  ( 0.018645 -0.004572 -0.003667)
 34:   3132.17   0.001748    8.83  0.000174  ( 0.012398 -0.003627 -0.002698)
 35:   3209.47   0.003465   17.51  0.000337  ( 0.006198  0.015927  0.006698)

* The epsilon (eps) is given for a Dirac delta lineshape.
** The dipole moment derivative (T) already includes vibrational overlap.

The first frequency considered to be a vibration is 6
The total number of vibrations considered is 30


--------------------------
THERMOCHEMISTRY AT 298.15K
--------------------------

Temperature         ...   298.15 K
Pressure            ...     1.00 atm
Total Mass          ...    56.11 AMU
Quasi RRHO          ...     True
Cut-Off Frequency   ...     1.00 cm^-1

Throughout the following assumptions are being made:
  (1) The electronic state is orbitally nondegenerate
  (2) There are no thermally accessible electronically excited states
  (3) Hindered rotations indicated by low frequency modes are not
      treated as such but are treated as vibrations and this may
      cause some error
  (4) All equations used are the standard statistical mechanics
      equations for an ideal gas
  (5) All vibrations are strictly harmonic

freq.     172.69  E(vib)   ...       0.38 
freq.     211.02  E(vib)   ...       0.34 
freq.     382.84  E(vib)   ...       0.20 
freq.     440.45  E(vib)   ...       0.17 
freq.     442.08  E(vib)   ...       0.17 
freq.     706.50  E(vib)   ...       0.07 
freq.     817.58  E(vib)   ...       0.05 
freq.     921.16  E(vib)   ...       0.03 
freq.     963.15  E(vib)   ...       0.03 
freq.     989.18  E(vib)   ...       0.02 
freq.    1022.77  E(vib)   ...       0.02 
freq.    1086.56  E(vib)   ...       0.02 
freq.    1108.41  E(vib)   ...       0.02 
freq.    1299.14  E(vib)   ...       0.01 
freq.    1410.03  E(vib)   ...       0.00 
freq.    1415.26  E(vib)   ...       0.00 
freq.    1445.16  E(vib)   ...       0.00 
freq.    1470.67  E(vib)   ...       0.00 
freq.    1482.64  E(vib)   ...       0.00 
freq.    1488.45  E(vib)   ...       0.00 
freq.    1502.00  E(vib)   ...       0.00 
freq.    1716.86  E(vib)   ...       0.00 
freq.    3009.15  E(vib)   ...       0.00 
freq.    3014.92  E(vib)   ...       0.00 
freq.    3050.03  E(vib)   ...       0.00 
freq.    3052.92  E(vib)   ...       0.00 
freq.    3103.35  E(vib)   ...       0.00 
freq.    3105.09  E(vib)   ...       0.00 
freq.    3132.17  E(vib)   ...       0.00 
freq.    3209.47  E(vib)   ...       0.00 

------------
INNER ENERGY
------------

The inner energy is: U= E(el) + E(ZPE) + E(vib) + E(rot) + E(trans)
    E(el)   - is the total energy from the electronic structure calculation
              = E(kin-el) + E(nuc-el) + E(el-el) + E(nuc-nuc)
    E(ZPE)  - the the zero temperature vibrational energy from the frequency calculation
    E(vib)  - the the finite temperature correction to E(ZPE) due to population
              of excited vibrational states
    E(rot)  - is the rotational thermal energy
    E(trans)- is the translational thermal energy

Summary of contributions to the inner energy U:
Electronic energy                ...   -157.18614558 Eh
Zero point energy                ...      0.10746504 Eh      67.44 kcal/mol
Thermal vibrational correction   ...      0.00247048 Eh       1.55 kcal/mol
Thermal rotational correction    ...      0.00141627 Eh       0.89 kcal/mol
Thermal translational correction ...      0.00141627 Eh       0.89 kcal/mol
-----------------------------------------------------------------------
Total thermal energy                   -157.07337751 Eh


Summary of corrections to the electronic energy:
(perhaps to be used in another calculation)
Total thermal correction                  0.00530302 Eh       3.33 kcal/mol
Non-thermal (ZPE) correction              0.10746504 Eh      67.44 kcal/mol
-----------------------------------------------------------------------
Total correction                          0.11276807 Eh      70.76 kcal/mol


--------
ENTHALPY
--------

The enthalpy is H = U + kB*T
                kB is Boltzmann's constant
Total thermal energy              ...   -157.07337751 Eh 
Thermal Enthalpy correction       ...      0.00094421 Eh       0.59 kcal/mol
-----------------------------------------------------------------------
Total Enthalpy                    ...   -157.07243330 Eh


Note: Only C1 symmetry has been detected, increase convergence thresholds 
      if your molecule has a higher symmetry. Symmetry factor of 1.0 is   
      used for the rotational entropy correction. 
 

Note: Rotational entropy computed according to Herzberg 
Infrared and Raman Spectra, Chapter V,1, Van Nostrand Reinhold, 1945 
Point Group:  C1, Symmetry Number:   1  
Rotational constants in cm-1:     0.306226     0.280850     0.154847 

Vibrational entropy computed according to the QRRHO of S. Grimme
Chem.Eur.J. 2012 18 9955 using a reference frequency of 100.0 cm-1


-------
ENTROPY
-------

The entropy contributions are T*S = T*(S(el)+S(vib)+S(rot)+S(trans))
     S(el)   - electronic entropy
     S(vib)  - vibrational entropy
     S(rot)  - rotational entropy
     S(trans)- translational entropy
The entropies will be listed as multiplied by the temperature to get
units of energy

Electronic entropy                ...      0.00000000 Eh      0.00 kcal/mol
Vibrational entropy               ...      0.00393566 Eh      2.47 kcal/mol
Rotational entropy                ...      0.01154962 Eh      7.25 kcal/mol
Translational entropy             ...      0.01805279 Eh     11.33 kcal/mol
-----------------------------------------------------------------------
Final entropy term                ...      0.03353807 Eh     21.05 kcal/mol

In case the symmetry of your molecule has not been determined correctly
or in case you have a reason to use a different symmetry number we print 
out the resulting rotational entropy values for sn=1,12:

 non-linear molecules -----------------------------------
|  sn= 1 | S(rot)=       0.01154962 Eh      7.25 kcal/mol|
|  sn= 2 | S(rot)=       0.01089516 Eh      6.84 kcal/mol|
|  sn= 3 | S(rot)=       0.01051233 Eh      6.60 kcal/mol|
|  sn= 4 | S(rot)=       0.01024071 Eh      6.43 kcal/mol|
|  sn= 5 | S(rot)=       0.01003002 Eh      6.29 kcal/mol|
|  sn= 6 | S(rot)=       0.00985787 Eh      6.19 kcal/mol|
|  sn= 7 | S(rot)=       0.00971233 Eh      6.09 kcal/mol|
|  sn= 8 | S(rot)=       0.00958625 Eh      6.02 kcal/mol|
|  sn= 9 | S(rot)=       0.00947504 Eh      5.95 kcal/mol|
|  sn=10 | S(rot)=       0.00937556 Eh      5.88 kcal/mol|
|  sn=11 | S(rot)=       0.00928557 Eh      5.83 kcal/mol|
|  sn=12 | S(rot)=       0.00920342 Eh      5.78 kcal/mol|
 linear molecules ---------------------------------------
|  Dinfh | S(rot)=       0.00708700 Eh      4.45 kcal/mol|
|  Cinfv | S(rot)=       0.00774146 Eh      4.86 kcal/mol|
 --------------------------------------------------------


-------------------
GIBBS FREE ENERGY
-------------------

The Gibbs free energy is G = H - T*S

Total enthalpy                    ...   -157.07243330 Eh 
Total entropy correction          ...     -0.03353807 Eh    -21.05 kcal/mol
-----------------------------------------------------------------------
Final Gibbs free energy         ...   -157.10597137 Eh

For completeness - the Gibbs free energy minus the electronic energy
G-E(el)                           ...      0.08017421 Eh     50.31 kcal/mol


Maximum memory used throughout the entire PROP-calculation: 42.9 MB

--------------------------------
SUGGESTED CITATIONS FOR THIS RUN
--------------------------------

Below you find a list of papers that are relevant to this ORCA run
We neither can nor want to force you to cite these papers, but we appreciate if you do
You receive ORCA, which is the product of decades of hard work by many enthusiastic individuals, for free
The only thing we kindly ask in return is that you cite our papers,
We deeply appreciate it, if you show your appreciation for ORCA by not just citing the generic ORCA reference.

Please note that relegating all ORCA citations to the supporting information does *not* help us.
SI sections are not indexed - citations you put there will not count into any citation statistics
But we need these citations in order to attract the funding resources that allow us to do what we are doing

Therefore, if you are a happy ORCA user, please consider citing a few of the papers listed below in the main body of your paper

In addition to the list printed below, the program has created the file gem.bibtex that contains the list in bibtex format
You can import this file easily into all common literature databanks and citation aid programs


List of essential papers. We consider these as the minimum necessary citations

  1. Neese,F.
     Software update: the ORCA program system, version 5.0
     WIRES Comput. Molec. Sci., 2022 12(1)e1606
     doi.org/10.1002/wcms.1606

List of papers to cite with high priority. The work reported in these papers was absolutely
necessary for this run to complete.
Our perspective: the developers of density functionals and basis sets usually get cited in chemistry papers
Good! But without the algorithms to do something with them, the functionals or basis sets would not do anything.
Hence, in our opinion, the algorithm design and method developments papers are equally worthy of getting cited

  1. Neese,F.
     An improvement of the resolution of the identity approximation for the formation of the Coulomb matrix
     J. Comp. Chem., 2003 24(14)1740-1747
     doi.org/10.1002/jcc.10318
  2. Neese,F.; Wennmohs,F.; Hansen,A.; Becker,U.
     Efficient, approximate and parallel Hartree-Fock and hybrid DFT calculations. A 'chain-of-spheres' algorithm for the Hartree-Fock exchange
     Chem. Phys., 2009 356(1-3)98-109
     doi.org/10.1016/j.chemphys.2008.10.036
  3. Bykov,D.; Petrenko,T.; Izsak,R.; Kossmann,S.; Becker,U.; Valeev,E.; Neese,F.
     Efficient implementation of the analytic second derivatives of Hartree-Fock and hybrid DFT energies: a detailed analysis of different approximations
     Molec. Phys., 2015 113 1961-1977
     doi.org/10.1080/00268976.2015.1025114
  4. Helmich-Paris,B.; de Souza,B.; Neese,F.; Izsák,R.
     An improved chain of spheres for exchange algorithm
     J. Chem. Phys., 2021 155 104109
     doi.org/doi: 10.1063/5.0058766.
  5. Neese,F.
     The SHARK Integral Generation and Digestion System
     J. Comp. Chem., 2022  1-16
     doi.org/10.1002/jcc.26942
  6. Caldeweyher,E.; Bannwarth,C.; Grimme,S.
     Extension of the D3 dispersion coefficient model
     J. Chem. Phys., 2017 147 034112-XXXX
     doi.org/10.1063/1.4993215
  7. Caldeweyher,E.; Ehlert,S.; Hansen,A.; Neugebauer,H.; Spicher,S.; Bannwarth,C.; Grimme,S.
     A generally applicable atomic-charge dependent London dispersion correction
     J. Chem. Phys., 2019 150 154122-XXXX
     doi.org/10.1063/1.5090222
  8. Caldeweyher,E.; Mewes,J.; Ehlert,S.; Grimme,S.
     Extension and evaluation of the D4 London-dispersion model for periodic systems
     Phys. Chem. Chem. Phys., 2020 22(16)8499-8512
     doi.org/10.1039/D0CP00502A

List of suggested additional citations. These are papers that are important in the 'surrounding' of 
of this run, or papers that preceded the highly important papers. If you like your results we are grateful for a citation.

  1. Izsak,R.; Neese,F.
     An overlap fitted chain of spheres exchange method
     J. Chem. Phys., 2011 135 144105
     doi.org/10.1063/1.3646921
  2. Izsak,R.; Hansen,A.; Neese,F.
     The resolution of identity and chain of spheres approximations for the LPNO-CCSD singles Fock term
     Molec. Phys., 2012 110 2413-2417
     doi.org/10.1080/00268976.2012.687466
  3. Neese,F.
     The ORCA program system
     WIRES Comput. Molec. Sci., 2012 2(1)73-78
     doi.org/10.1002/wcms.81
  4. Izsak,R.; Neese,F.; Klopper,W.
     Robust fitting techniques in the chain of spheres approximation to the Fock exchange: The role of the complementary space
     J. Chem. Phys., 2013 139 
     doi.org/10.1063/1.4819264
  5. Neese,F.
     Software update: the ORCA program system, version 4.0
     WIRES Comput. Molec. Sci., 2018 8(1)1-6
     doi.org/10.1002/wcms.1327
  6. Neese,F.; Wennmohs,F.; Becker,U.; Riplinger,C.
     The ORCA quantum chemistry program package
     J. Chem. Phys., 2020 152 Art. No. L224108
     doi.org/10.1063/5.0004608

List of optional additional citations

  1. Neese,F.
     Approximate second-order SCF convergence for spin unrestricted wavefunctions
     Chem. Phys. Lett., 2000 325(1-3)93-98
     doi.org/10.1016/s0009-2614(00)00662-x

Timings for individual modules:

Sum of individual times          ...      435.623 sec (=   7.260 min)
Startup calculation              ...        5.675 sec (=   0.095 min)   1.3 %
SCF iterations                   ...       38.916 sec (=   0.649 min)   8.9 %
Property integrals               ...       66.845 sec (=   1.114 min)  15.3 %
SCF Response                     ...       40.350 sec (=   0.672 min)   9.3 %
Property calculations            ...      263.424 sec (=   4.390 min)  60.5 %
SCF Gradient evaluation          ...       20.390 sec (=   0.340 min)   4.7 %
Geometry relaxation              ...        0.023 sec (=   0.000 min)   0.0 %
                             ****ORCA TERMINATED NORMALLY****
TOTAL RUN TIME: 0 days 0 hours 7 minutes 17 seconds 922 msec
