
                                 *****************
                                 * O   R   C   A *
                                 *****************

                                            #,                                       
                                            ###                                      
                                            ####                                     
                                            #####                                    
                                            ######                                   
                                           ########,                                 
                                     ,,################,,,,,                         
                               ,,#################################,,                 
                          ,,##########################################,,             
                       ,#########################################, ''#####,          
                    ,#############################################,,   '####,        
                  ,##################################################,,,,####,       
                ,###########''''           ''''###############################       
              ,#####''   ,,,,##########,,,,          '''####'''          '####       
            ,##' ,,,,###########################,,,                        '##       
           ' ,,###''''                  '''############,,,                           
         ,,##''                                '''############,,,,        ,,,,,,###''
      ,#''                                            '''#######################'''  
     '                                                          ''''####''''         
             ,#######,   #######,   ,#######,      ##                                
            ,#'     '#,  ##    ##  ,#'     '#,    #''#        ,####,   ,####,        
            ##       ##  ##   ,#'  ##            #'  '#       #'       #'  '#        
            ##       ##  #######   ##           ,######,      #####,   #    #        
            '#,     ,#'  ##    ##  '#,     ,#' ,#      #,     #,   #   #,  ,#        
             '#######'   ##     ##  '#######'  #'      '#     '####' # '####'        



                #########################################################
                #                        -***-                          #
                #          Department of theory and spectroscopy        #
                #                                                       #
                #                      Frank Neese                      #
                #                                                       #
                #     Directorship, Architecture, Infrastructure        #
                #                    SHARK, DRIVERS                     #
                #        Core code/Algorithms in most modules           #
                #                                                       #
                #        Max Planck Institute fuer Kohlenforschung      #
                #                Kaiser Wilhelm Platz 1                 #
                #                 D-45470 Muelheim/Ruhr                 #
                #                      Germany                          #
                #                                                       #
                #                  All rights reserved                  #
                #                        -***-                          #
                #########################################################


                         Program Version 6.0.0  -   RELEASE  -


 With contributions from (in alphabetic order):
   Daniel Aravena         : Magnetic Suceptibility
   Michael Atanasov       : Ab Initio Ligand Field Theory (pilot matlab implementation)
   Alexander A. Auer      : GIAO ZORA, VPT2 properties, NMR spectrum
   Ute Becker             : All parallelization in ORCA, NUMFREQ, NUMCALC
   Giovanni Bistoni       : ED, misc. LED, open-shell LED, HFLD
   Martin Brehm           : Molecular dynamics
   Dmytro Bykov           : pre 5.0 version of the SCF Hessian
   Marcos Casanova-Páez   : Triplet and SCS-CIS(D). UHF-(DLPNO)-IP/EA/STEOM-CCSD. UHF-CVS-IP/STEOM-CCSD
   Vijay G. Chilkuri      : MRCI spin determinant printing, contributions to CSF-ICE
   Pauline Colinet        : FMM embedding
   Dipayan Datta          : RHF DLPNO-CCSD density
   Achintya Kumar Dutta   : EOM-CC, STEOM-CC
   Nicolas Foglia         : Exact transition moments, OPA infrastructure, MCD improvements
   Dmitry Ganyushin       : Spin-Orbit,Spin-Spin,Magnetic field MRCI
   Miquel Garcia          : C-PCM and meta-GGA Hessian, CCSD/C-PCM, Gaussian charge scheme
   Tiago L. C. Gouveia    : GS-ROHF, GS-ROCIS
   Yang Guo               : DLPNO-NEVPT2, F12-NEVPT2, CIM, IAO-localization
   Andreas Hansen         : Spin unrestricted coupled pair/coupled cluster methods
   Ingolf Harden          : AUTO-CI MPn and infrastructure 
   Benjamin Helmich-Paris : MC-RPA, TRAH-(SCF,CASSCF), AVAS, COSX integrals, SCF dyn. polar.
   Lee Huntington         : MR-EOM, pCC
   Robert Izsak           : Overlap fitted RIJCOSX, COSX-SCS-MP3, EOM
   Riya Kayal             : Wick's Theorem for AUTO-CI, AUTO-CI UHF-CCSDT
   Emily Kempfer          : AUTO-CI, RHF CISDT and CCSDT
   Christian Kollmar      : KDIIS, OOCD, Brueckner-CCSD(T), CCSD density, CASPT2, CASPT2-K, improved NEVPT2
   Axel Koslowski         : Symmetry handling
   Simone Kossmann        : Meta GGA functionals, TD-DFT gradient, OOMP2, (MP2 Hessian; deprecated post 5.0)
   Lucas Lang             : DCDCAS
   Marvin Lechner         : AUTO-CI (C++ implementation), FIC-MRCC
   Spencer Leger          : CASSCF response
   Dagmar Lenk            : GEPOL surface, SMD, ORCA-2-JSON
   Dimitrios Liakos       : Extrapolation schemes; Compound Job, initial MDCI parallelization
   Dimitrios Manganas     : Further ROCIS development; embedding schemes. LFT, Crystal Embedding
   Dimitrios Pantazis     : SARC Basis sets
   Anastasios Papadopoulos: AUTO-CI, single reference methods and gradients
   Taras Petrenko         : pre 6.0 DFT Hessian and TD-DFT gradient, (ASA, deprecated), ECA, 1-Electron XAS/XES, NRVS
   Peter Pinski           : DLPNO-MP2, DLPNO-MP2 Gradient
   Christoph Reimann      : Effective Core Potentials
   Marius Retegan         : Local ZFS, SOC
   Christoph Riplinger    : Optimizer, TS searches, QM/MM, DLPNO-CCSD(T), (RO)-DLPNO pert. Triples
   Michael Roemelt        : Original ROCIS implementation
   Masaaki Saitow         : Open-shell DLPNO-CCSD energy and density
   Barbara Sandhoefer     : DKH picture change effects
   Kantharuban Sivalingam : CASSCF convergence/infrastructure, NEVPT2 and variants, FIC-MRCI
   Bernardo de Souza      : ESD, SOC TD-DFT
   Georgi Stoychev        : AutoAux, RI-MP2 NMR, DLPNO-MP2 response, X2C
   Van Anh Tran           : RI-MP2 g-tensors
   Willem Van den Heuvel  : Paramagnetic NMR
   Zikuan Wang            : NOTCH, Electric field optimization 
   Frank Wennmohs         : Technical directorship and infrastructure
   Hang Xu                : AUTO-CI-Response properties 


 We gratefully acknowledge several colleagues who have allowed us to
 interface, adapt or use parts of their codes:
   Stefan Grimme, W. Hujo, H. Kruse, P. Pracht,  : VdW corrections, initial TS optimization,
                  C. Bannwarth, S. Ehlert,         DFT functionals, gCP, sTDA/sTD-DF
                  L. Wittmann, M. Mueller
   Ed Valeev, F. Pavosevic, A. Kumar             : LibInt (2-el integral package), F12 methods
   Garnet Chan, S. Sharma, J. Yang, R. Olivares  : DMRG
   Ulf Ekstrom                                   : XCFun DFT Library
   Mihaly Kallay                                 : mrcc  (arbitrary order and MRCC methods)
   Frank Weinhold                                : gennbo (NPA and NBO analysis)
   Simon Mueller                                 : openCOSMO-RS
   Christopher J. Cramer and Donald G. Truhlar   : smd solvation model
   Lars Goerigk                                  : TD-DFT with DH, B97 family of functionals
   V. Asgeirsson, H. Jonsson                     : NEB implementation
   FAccTs GmbH                                   : IRC, NEB, NEB-TS, DLPNO-Multilevel, CI-OPT
                                                   MM, QMMM, 2- and 3-layer-ONIOM, Crystal-QMMM,
                                                   LR-CPCM, SF, NACMEs, symmetry and pop. for TD-DFT,
                                                   nearIR, NL-DFT gradient (VV10), updates on ESD,
                                                   ML-optimized integration grids, MBIS, APM,
                                                   GOAT, DOCKER, SOLVATOR, interface openCOSMO-RS
   S Lehtola, MJT Oliveira, MAL Marques          : LibXC Library
   Liviu Ungur et al                             : ANISO software


 Your calculation uses the libint2 library for the computation of 2-el integrals
 For citations please refer to: http://libint.valeyev.net

 Your ORCA version has been built with support for libXC version: 6.2.2
 For citations please refer to: https://libxc.gitlab.io

 This ORCA versions uses:
   CBLAS   interface :  Fast vector & matrix operations
   LAPACKE interface :  Fast linear algebra routines
   SCALAPACK package :  Parallel linear algebra routines
   Shared memory     :  Shared parallel matrices
   BLAS/LAPACK       :  OpenBLAS 0.3.27  USE64BITINT DYNAMIC_ARCH NO_AFFINITY Prescott SINGLE_THREADED
        Core in use  :  Prescott
   Copyright (c) 2011-2014, The OpenBLAS Project


NOTE: MaxCore=1800 MB was set to SCF,MP2,MDCI,CIPSI,MRCI and CIS
      => If you want to overwrite this, your respective input block should be placed after the MaxCore statement


***************************************
The coordinates will be read from file: gem.xyz
***************************************


Your calculation utilizes the atom-pairwise dispersion correction
based on EEQ partial charges (D4)


Warning: RI is on but no J-basis has been assigned. Assigning Def2/J (nothing to worry about!)
================================================================================

----- Orbital basis set information -----
Your calculation utilizes the basis: def2-TZVP
   F. Weigend and R. Ahlrichs, Phys. Chem. Chem. Phys. 7, 3297 (2005).

----- AuxJ basis set information -----
Your calculation utilizes the auxiliary basis: def2/J
   F. Weigend, Phys. Chem. Chem. Phys. 8, 1057 (2006).

================================================================================
                                        WARNINGS
                       Please study these warnings very carefully!
================================================================================


WARNING: Geometry Optimization
  ===> : Switching off AutoStart
         For restart on a previous wavefunction, please use MOREAD

================================================================================
                                       INPUT FILE
================================================================================
NAME = gem.inp
|  1> !B3LYP D4 DEF2-TZVP OPT FREQ PAL4
|  2> %FREQ TEMP 77, 298, 330, 450 END
|  3> %maxcore 1800
|  4> 
|  5> * XYZFILE 0 1 gem.xyz
|  6> 
|  7>                          ****END OF INPUT****
================================================================================

                       *****************************
                       * Geometry Optimization Run *
                       *****************************

Geometry optimization settings:
Update method            Update   .... BFGS
Choice of coordinates    CoordSys .... (2022) Redundant Internals
Initial Hessian          InHess   .... Almloef's Model
Max. no of cycles        MaxIter  .... 50

Convergence Tolerances:
Energy Change            TolE     ....  5.0000e-06 Eh
Max. Gradient            TolMAXG  ....  3.0000e-04 Eh/bohr
RMS Gradient             TolRMSG  ....  1.0000e-04 Eh/bohr
Max. Displacement        TolMAXD  ....  4.0000e-03 bohr
RMS Displacement         TolRMSD  ....  2.0000e-03 bohr
Strict Convergence                .... False

------------------------------------------------------------------------------
                        ORCA OPTIMIZATION COORDINATE SETUP
------------------------------------------------------------------------------

The optimization will be done in redundant internal coordinates (2022)
Making redundant internal coordinates   ...  (2022 redundants) done
Evaluating the initial hessian          ...  (Almloef) done
Evaluating the coordinates              ...  done
Calculating the B-matrix                .... done
Calculating the G-matrix                .... done
Diagonalizing the G-matrix              .... done
The first mode is                       ....   13
The number of degrees of freedom        ....   30

    -----------------------------------------------------------------
                    Redundant Internal Coordinates


    -----------------------------------------------------------------
         Definition                    Initial Value    Approx d2E/dq
    -----------------------------------------------------------------
      1. B(C   1,C   0)                  1.3306         0.777120   
      2. B(C   2,C   1)                  1.5026         0.413100   
      3. B(C   3,C   1)                  1.5026         0.413122   
      4. B(H   4,C   2)                  1.0948         0.353850   
      5. B(H   5,C   2)                  1.0900         0.360135   
      6. B(H   6,C   2)                  1.0948         0.353818   
      7. B(H   7,C   0)                  1.0835         0.368844   
      8. B(H   8,C   0)                  1.0834         0.368870   
      9. B(H   9,C   3)                  1.0948         0.353841   
     10. B(H  10,C   3)                  1.0900         0.360097   
     11. B(H  11,C   3)                  1.0948         0.353799   
     12. A(H   7,C   0,H   8)          116.8725         0.293047   
     13. A(C   1,C   0,H   8)          121.5693         0.368269   
     14. A(C   1,C   0,H   7)          121.5582         0.368264   
     15. A(C   0,C   1,C   3)          122.2147         0.420283   
     16. A(C   2,C   1,C   3)          115.5875         0.376134   
     17. A(C   0,C   1,C   2)          122.1978         0.420279   
     18. A(C   1,C   2,H   6)          110.8072         0.328780   
     19. A(H   4,C   2,H   5)          108.3537         0.290046   
     20. A(C   1,C   2,H   5)          111.8318         0.329742   
     21. A(H   5,C   2,H   6)          108.3470         0.290042   
     22. A(C   1,C   2,H   4)          110.7828         0.328785   
     23. A(H   4,C   2,H   6)          106.5268         0.289242   
     24. A(H   9,C   3,H  10)          108.3449         0.290040   
     25. A(C   1,C   3,H  10)          111.8517         0.329739   
     26. A(C   1,C   3,H   9)          110.7918         0.328786   
     27. A(H  10,C   3,H  11)          108.3415         0.290034   
     28. A(H   9,C   3,H  11)          106.5257         0.289238   
     29. A(C   1,C   3,H  11)          110.7923         0.328780   
     30. D(C   3,C   1,C   0,H   7)   -179.9954         0.043375   
     31. D(C   2,C   1,C   0,H   8)   -179.9884         0.043375   
     32. D(C   2,C   1,C   0,H   7)      0.0198         0.043375   
     33. D(C   3,C   1,C   0,H   8)     -0.0036         0.043375   
     34. D(H   4,C   2,C   1,C   3)    -59.0780         0.012632   
     35. D(H   4,C   2,C   1,C   0)    120.9077         0.012632   
     36. D(H   6,C   2,C   1,C   0)   -121.0768         0.012632   
     37. D(H   5,C   2,C   1,C   3)    179.9339         0.012632   
     38. D(H   5,C   2,C   1,C   0)     -0.0803         0.012632   
     39. D(H  11,C   3,C   1,C   0)    120.8008         0.012634   
     40. D(H  10,C   3,C   1,C   2)    179.7938         0.012634   
     41. D(H  10,C   3,C   1,C   0)     -0.1919         0.012634   
     42. D(H   9,C   3,C   1,C   2)     58.7970         0.012634   
     43. D(H   9,C   3,C   1,C   0)   -121.1887         0.012634   
    -----------------------------------------------------------------

Number of atoms                         .... 12
Number of degrees of freedom            .... 43


         *************************************************************
         *                GEOMETRY OPTIMIZATION CYCLE   1            *
         *************************************************************
---------------------------------
CARTESIAN COORDINATES (ANGSTROEM)
---------------------------------
  C     -1.433267    0.997450   -0.118267
  C     -0.184713    0.627585   -0.391839
  C      0.138091   -0.699051   -1.019303
  C      0.995290    1.508926   -0.094078
  H      0.665479   -0.561633   -1.968772
  H     -0.759793   -1.287635   -1.207490
  H      0.803732   -1.282352   -0.374905
  H     -2.276433    0.353296   -0.337456
  H     -1.654452    1.956728    0.334199
  H      1.558241    1.726360   -1.007498
  H      0.692205    2.454553    0.355405
  H      1.690481    1.010015    0.588854

----------------------------
CARTESIAN COORDINATES (A.U.)
----------------------------
  NO LB      ZA    FRAG     MASS         X           Y           Z
   0 C     6.0000    0    12.011   -2.708483    1.884907   -0.223492
   1 C     6.0000    0    12.011   -0.349058    1.185963   -0.740468
   2 C     6.0000    0    12.011    0.260954   -1.321015   -1.926203
   3 C     6.0000    0    12.011    1.880826    2.851457   -0.177781
   4 H     1.0000    0     1.008    1.257573   -1.061333   -3.720440
   5 H     1.0000    0     1.008   -1.435802   -2.433278   -2.281826
   6 H     1.0000    0     1.008    1.518833   -2.423294   -0.708469
   7 H     1.0000    0     1.008   -4.301834    0.667632   -0.637700
   8 H     1.0000    0     1.008   -3.126461    3.697680    0.631545
   9 H     1.0000    0     1.008    2.944649    3.262348   -1.903895
  10 H     1.0000    0     1.008    1.308077    4.638432    0.671618
  11 H     1.0000    0     1.008    3.194546    1.908651    1.112774

--------------------------------
INTERNAL COORDINATES (ANGSTROEM)
--------------------------------
 C      0   0   0     0.000000000000     0.00000000     0.00000000
 C      1   0   0     1.330611969482     0.00000000     0.00000000
 C      2   1   0     1.502623249269   122.19776584     0.00000000
 C      2   1   3     1.502608756746   122.21472362   179.98478049
 H      3   2   1     1.094766300292   110.78282915   120.90770596
 H      3   2   1     1.089973371514   111.83175833   359.91965748
 H      3   2   1     1.094790363427   110.80715644   238.92315371
 H      1   2   3     1.083469416637   121.55823722     0.00000000
 H      1   2   3     1.083449674653   121.56929254   180.01160213
 H      4   2   1     1.094772711235   110.79184639   238.81126091
 H      4   2   1     1.090002317537   111.85171660   359.80810047
 H      4   2   1     1.094805596711   110.79228888   120.80081770

---------------------------
INTERNAL COORDINATES (A.U.)
---------------------------
 C      0   0   0     0.000000000000     0.00000000     0.00000000
 C      1   0   0     2.514492212838     0.00000000     0.00000000
 C      2   1   0     2.839546423580   122.19776584     0.00000000
 C      2   1   3     2.839519036682   122.21472362   179.98478049
 H      3   2   1     2.068808488197   110.78282915   120.90770596
 H      3   2   1     2.059751165429   111.83175833   359.91965748
 H      3   2   1     2.068853960933   110.80715644   238.92315371
 H      1   2   3     2.047460471924   121.55823722     0.00000000
 H      1   2   3     2.047423164980   121.56929254   180.01160213
 H      4   2   1     2.068820603125   110.79184639   238.81126091
 H      4   2   1     2.059805865484   111.85171660   359.80810047
 H      4   2   1     2.068882747667   110.79228888   120.80081770

---------------------
BASIS SET INFORMATION
---------------------
There are 2 groups of distinct atoms

 Group   1 Type C   : 11s6p2d1f contracted to 5s3p2d1f pattern {62111/411/11/1}
 Group   2 Type H   : 5s1p contracted to 3s1p pattern {311/1}

Atom   0C    basis set group =>   1
Atom   1C    basis set group =>   1
Atom   2C    basis set group =>   1
Atom   3C    basis set group =>   1
Atom   4H    basis set group =>   2
Atom   5H    basis set group =>   2
Atom   6H    basis set group =>   2
Atom   7H    basis set group =>   2
Atom   8H    basis set group =>   2
Atom   9H    basis set group =>   2
Atom  10H    basis set group =>   2
Atom  11H    basis set group =>   2
---------------------------------
AUXILIARY/J BASIS SET INFORMATION
---------------------------------
There are 2 groups of distinct atoms

 Group   1 Type C   : 12s5p4d2f1g contracted to 6s4p3d1f1g pattern {711111/2111/211/2/1}
 Group   2 Type H   : 5s2p1d contracted to 3s1p1d pattern {311/2/1}

Atom   0C    basis set group =>   1
Atom   1C    basis set group =>   1
Atom   2C    basis set group =>   1
Atom   3C    basis set group =>   1
Atom   4H    basis set group =>   2
Atom   5H    basis set group =>   2
Atom   6H    basis set group =>   2
Atom   7H    basis set group =>   2
Atom   8H    basis set group =>   2
Atom   9H    basis set group =>   2
Atom  10H    basis set group =>   2
Atom  11H    basis set group =>   2


           ************************************************************
           *        Program running with 4 parallel MPI-processes     *
           *              working on a common directory               *
           ************************************************************
------------------------------------------------------------------------------
                             ORCA STARTUP CALCULATIONS
                           -- RI-GTO INTEGRALS CHOSEN --
------------------------------------------------------------------------------
------------------------------------------------------------------------------
                   ___                                                        
                  /   \      - P O W E R E D   B Y -                         
                 /     \                                                     
                 |  |  |   _    _      __       _____    __    __             
                 |  |  |  | |  | |    /  \     |  _  \  |  |  /  |          
                  \  \/   | |  | |   /    \    | | | |  |  | /  /          
                 / \  \   | |__| |  /  /\  \   | |_| |  |  |/  /          
                |  |  |   |  __  | /  /__\  \  |    /   |      \           
                |  |  |   | |  | | |   __   |  |    \   |  |\   \          
                \     /   | |  | | |  |  |  |  | |\  \  |  | \   \       
                 \___/    |_|  |_| |__|  |__|  |_| \__\ |__|  \__/        
                                                                              
                      - O R C A' S   B I G   F R I E N D -                    
                                      &                                       
                       - I N T E G R A L  F E E D E R -                       
                                                                              
 v1 FN, 2020, v2 2021, v3 2022-2024                                           
------------------------------------------------------------------------------


----------------------
SHARK INTEGRAL PACKAGE
----------------------

Number of atoms                             ...     12
Number of basis functions                   ...    172
Number of shells                            ...     76
Maximum angular momentum                    ...      3
Integral batch strategy                     ... SHARK/LIBINT Hybrid
RI-J (if used) integral strategy            ... SPLIT-RIJ (Revised 2003 algorithm where possible)
Printlevel                                  ...      1
Contraction scheme used                     ... SEGMENTED contraction
Prescreening option                         ... SCHWARTZ
   Thresh                                   ... 2.500e-11
   Tcut                                     ... 2.500e-12
   Tpresel                                  ... 2.500e-12 
Coulomb Range Separation                    ... NOT USED
Exchange Range Separation                   ... NOT USED
Multipole approximations                    ... NOT USED
Finite Nucleus Model                        ... NOT USED
CABS basis                                  ... NOT available
Auxiliary Coulomb fitting basis             ... AVAILABLE
   # of basis functions in Aux-J            ...    284
   # of shells in Aux-J                     ...    100
   Maximum angular momentum in Aux-J        ...      4
Auxiliary J/K fitting basis                 ... NOT available
Auxiliary Correlation fitting basis         ... NOT available
Auxiliary 'external' fitting basis          ... NOT available

Checking pre-screening integrals            ... done (  0.0 sec) Dimension = 76
Check shell pair data                       ... done (  0.0 sec)
Shell pair information
Shell pair cut-off parameter TPreSel        ...   2.5e-12
Total number of shell pairs                 ...      2926
Shell pairs after pre-screening             ...      2860
Total number of primitive shell pairs       ...      8368
Primitive shell pairs kept                  ...      6714
          la=0 lb=0:    940 shell pairs
          la=1 lb=0:    864 shell pairs
          la=1 lb=1:    210 shell pairs
          la=2 lb=0:    352 shell pairs
          la=2 lb=1:    160 shell pairs
          la=2 lb=2:     36 shell pairs
          la=3 lb=0:    176 shell pairs
          la=3 lb=1:     80 shell pairs
          la=3 lb=2:     32 shell pairs
          la=3 lb=3:     10 shell pairs

Calculating one electron integrals          ... done (  0.0 sec)
Calculating RI/J V-Matrix + Cholesky decomp.... done (  0.0 sec)
Calculating Nuclear repulsion               ... done (  0.0 sec) ENN=    119.890860930042 Eh

Diagonalization of the overlap matrix:
Smallest eigenvalue                        ... 1.301e-04
Time for diagonalization                   ...    0.011 sec
Threshold for overlap eigenvalues          ... 1.000e-07
Number of eigenvalues below threshold      ... 0
Time for construction of square roots      ...    0.010 sec
Total time needed                          ...    0.033 sec

-------------------
DFT GRID GENERATION
-------------------

General Integration Accuracy     IntAcc      ... 4.388
Radial Grid Type                 RadialGrid  ... OptM3 with GC (2021)
Angular Grid (max. ang.)         AngularGrid ... 4 (Lebedev-302)
Angular grid pruning method      GridPruning ... 4 (adaptive)
Weight generation scheme         WeightScheme... mBecke (2022)
Basis function cutoff            BFCut       ... 1.0000e-11
Integration weight cutoff        WCut        ... 1.0000e-14
Partially contracted basis set               ... off
Rotationally invariant grid construction     ... off
Angular grids for H and He will be reduced by one unit

Total number of grid points                  ...    50101
Total number of batches                      ...      789
Average number of points per batch           ...       63
Average number of grid points per atom       ...     4175

--------------------
COSX GRID GENERATION
--------------------

GRIDX 1
-------
General Integration Accuracy     IntAcc      ... 3.816
Radial Grid Type                 RadialGrid  ... OptM3 with GC (2021)
Angular Grid (max. ang.)         AngularGrid ... 1 (Lebedev-50)
Angular grid pruning method      GridPruning ... 4 (adaptive)
Weight generation scheme         WeightScheme... mBecke (2022)
Basis function cutoff            BFCut       ... 1.0000e-11
Integration weight cutoff        WCut        ... 1.0000e-14
Partially contracted basis set               ... on
Rotationally invariant grid construction     ... off
Angular grids for H and He will be reduced by one unit

Total number of grid points                  ...     6463
Total number of batches                      ...       58
Average number of points per batch           ...      111
Average number of grid points per atom       ...      539
UseSFitting                                  ... on

GRIDX 2
-------
General Integration Accuracy     IntAcc      ... 4.020
Radial Grid Type                 RadialGrid  ... OptM3 with GC (2021)
Angular Grid (max. ang.)         AngularGrid ... 2 (Lebedev-110)
Angular grid pruning method      GridPruning ... 4 (adaptive)
Weight generation scheme         WeightScheme... mBecke (2022)
Basis function cutoff            BFCut       ... 1.0000e-11
Integration weight cutoff        WCut        ... 1.0000e-14
Partially contracted basis set               ... on
Rotationally invariant grid construction     ... off
Angular grids for H and He will be reduced by one unit

Total number of grid points                  ...    13490
Total number of batches                      ...      112
Average number of points per batch           ...      120
Average number of grid points per atom       ...     1124
UseSFitting                                  ... on

GRIDX 3
-------
General Integration Accuracy     IntAcc      ... 4.338
Radial Grid Type                 RadialGrid  ... OptM3 with GC (2021)
Angular Grid (max. ang.)         AngularGrid ... 3 (Lebedev-194)
Angular grid pruning method      GridPruning ... 4 (adaptive)
Weight generation scheme         WeightScheme... mBecke (2022)
Basis function cutoff            BFCut       ... 1.0000e-11
Integration weight cutoff        WCut        ... 1.0000e-14
Partially contracted basis set               ... on
Rotationally invariant grid construction     ... off
Angular grids for H and He will be reduced by one unit

Total number of grid points                  ...    29540
Total number of batches                      ...      238
Average number of points per batch           ...      124
Average number of grid points per atom       ...     2462
UseSFitting                                  ... on
Initializing property integral containers    ... done (  0.0 sec)

SHARK setup successfully completed in   2.2 seconds

Maximum memory used throughout the entire STARTUP-calculation: 17.2 MB


           ************************************************************
           *        Program running with 4 parallel MPI-processes     *
           *              working on a common directory               *
           ************************************************************
-------------------------------------------------------------------------------
                                 ORCA GUESS
                   Start orbitals & Density for SCF / CASSCF
-------------------------------------------------------------------------------

------------
SCF SETTINGS
------------
Hamiltonian:
 Density Functional     Method          .... DFT(GTOs)
 Exchange Functional    Exchange        .... B88
   X-Alpha parameter    XAlpha          ....  0.666667
   Becke's b parameter  XBeta           ....  0.004200
 Correlation Functional Correlation     .... LYP
 LDA part of GGA corr.  LDAOpt          .... VWN-5
 Gradients option       PostSCFGGA      .... off
 Hybrid DFT is turned on
   Fraction HF Exchange ScalHFX         ....  0.200000
   Scaling of DF-GGA-X  ScalDFX         ....  0.720000
   Scaling of DF-GGA-C  ScalDFC         ....  0.810000
   Scaling of DF-LDA-C  ScalLDAC        ....  1.000000
   Perturbative correction              ....  0.000000
   NL short-range parameter             ....  4.800000
 RI-approximation to the Coulomb term is turned on
   Number of AuxJ basis functions       .... 284
   RIJ-COSX (HFX calculated with COS-X)).... on


General Settings:
 Integral files         IntName         .... gem
 Hartree-Fock type      HFTyp           .... RHF
 Total Charge           Charge          ....    0
 Multiplicity           Mult            ....    1
 Number of Electrons    NEL             ....   32
 Basis Dimension        Dim             ....  172
 Nuclear Repulsion      ENuc            ....    119.8908609300 Eh

Convergence Acceleration:
 AO-DIIS                CNVDIIS         .... on
   Start iteration      DIISMaxIt       ....    12
   Startup error        DIISStart       ....  0.200000
   # of expansion vecs  DIISMaxEq       ....     5
   Bias factor          DIISBfac        ....   1.050
   Max. coefficient     DIISMaxC        ....  10.000
 MO-DIIS                CNVKDIIS        .... off
 Trust-Rad. Augm. Hess. CNVTRAH         .... auto
   Auto Start mean grad. ratio tolernc. ....  1.125000
   Auto Start start iteration           ....    50
   Auto Start num. interpolation iter.  ....    10
   Max. Number of Micro iterations      ....    24
   Max. Number of Macro iterations      .... Maxiter - #DIIS iter
   Number of Davidson start vectors     ....     2
   Converg. threshold    (grad. norm)   ....   1.000e-05
   Grad. Scal. Fac. for Micro threshold ....   0.100
   Minimum threshold for Micro iter.    ....   1.000e-02
   NR start threshold (gradient norm)   ....   1.000e-04
   Initial trust radius                 ....   0.400
   Minimum AH scaling param. (alpha)    ....   1.000
   Maximum AH scaling param. (alpha)    .... 1000.000
   Quad. conv. algorithm                .... NR
   White noise on init. David. guess    .... on
   Maximum white noise                  ....   0.010
   Pseudo random numbers                .... off
   Inactive MOs                         .... canonical
   Orbital update algorithm             .... Taylor
   Preconditioner                       .... Diag
   Full preconditioner red. dimension   ....   250
 SOSCF                  CNVSOSCF        .... on
   Start iteration      SOSCFMaxIt      ....   150
   Startup grad/error   SOSCFStart      ....  0.003300
   Hessian update       SOSCFHessUp     .... L-BFGS
 Level Shifting         CNVShift        .... on
   Level shift para.    LevelShift      ....    0.2500
   Turn off err/grad.   ShiftErr        ....    0.0010
 Zerner damping         CNVZerner       .... off
 Static damping         CNVDamp         .... on
   Fraction old density DampFac         ....    0.7000
   Max. Damping (<1)    DampMax         ....    0.9800
   Min. Damping (>=0)   DampMin         ....    0.0000
   Turn off err/grad.   DampErr         ....    0.1000

SCF Procedure:
 Maximum # iterations   MaxIter         ....   125
 SCF integral mode      SCFMode         .... Direct
   Integral package                     .... SHARK and LIBINT hybrid scheme
 Reset frequency        DirectResetFreq ....    20
 Integral Threshold     Thresh          ....  2.500e-11 Eh
 Primitive CutOff       TCut            ....  2.500e-12 Eh

Convergence Tolerance:
 Convergence Check Mode ConvCheckMode   .... Total+1el-Energy
 Convergence forced     ConvForced      .... 0
 Energy Change          TolE            ....  1.000e-08 Eh
 1-El. energy change                    ....  1.000e-05 Eh
 Orbital Gradient       TolG            ....  1.000e-05
 Orbital Rotation angle TolX            ....  1.000e-05
 DIIS Error             TolErr          ....  5.000e-07

------------------------------
INITIAL GUESS: MODEL POTENTIAL
------------------------------
Loading Hartree-Fock densities                     ... done
Calculating cut-offs                               ... done
Initializing the effective Hamiltonian             ... done
Setting up the integral package (SHARK)            ... done
Starting the Coulomb interaction                   ... done (   0.1 sec)
Making the grid                                    ... done (   0.2 sec)
Mapping shells                                     ... done
Starting the XC term evaluation                    ... done (   0.1 sec)
  promolecular density results
     # of electrons  =     31.995146074
     EX              =    -22.914280719
     EC              =     -1.006344485
     EX+EC           =    -23.920625203
Transforming the Hamiltonian                       ... done (   0.0 sec)
Diagonalizing the Hamiltonian                      ... done (   0.0 sec)
Back transforming the eigenvectors                 ... done (   0.0 sec)
Now organizing SCF variables                       ... done
                      ------------------
                      INITIAL GUESS DONE (   0.4 sec)
                      ------------------
             **** ENERGY FILE WAS UPDATED (gem.en.tmp) ****
Finished Guess after   0.9 sec
Maximum memory used throughout the entire GUESS-calculation: 11.0 MB


           ************************************************************
           *        Program running with 4 parallel MPI-processes     *
           *              working on a common directory               *
           ************************************************************

-------------------------------------------------------------------------------------------
                                      ORCA LEAN-SCF
                              memory conserving SCF solver
-------------------------------------------------------------------------------------------

----------------------------------------D-I-I-S--------------------------------------------
Iteration    Energy (Eh)           Delta-E    RMSDP     MaxDP     DIISErr   Damp  Time(sec)
-------------------------------------------------------------------------------------------
               ***  Starting incremental Fock matrix formation  ***
    1    -156.9910170265299598     0.00e+00  1.71e-03  3.89e-02  1.92e-01  0.700   2.5
    2    -157.0763109631105294    -8.53e-02  1.27e-03  2.30e-02  1.01e-01  0.700   1.6
                               ***Turning on AO-DIIS***
    3    -157.1117041228284279    -3.54e-02  5.42e-04  9.02e-03  3.93e-02  0.700   1.6
    4    -157.1316031216013585    -1.99e-02  8.65e-04  2.16e-02  1.94e-02  0.000   1.5
    5    -157.1744032037178727    -4.28e-02  2.60e-04  5.55e-03  7.13e-03  0.000   1.5
                              *** Initializing SOSCF ***
---------------------------------------S-O-S-C-F--------------------------------------
Iteration    Energy (Eh)           Delta-E    RMSDP     MaxDP     MaxGrad    Time(sec)
--------------------------------------------------------------------------------------
    6    -157.1747012308242120    -2.98e-04  1.24e-04  2.69e-03  1.64e-03     1.5
               *** Restarting incremental Fock matrix formation ***
    7    -157.1747360539368401    -3.48e-05  8.83e-05  1.88e-03  4.91e-04     2.4
    8    -157.1747336266668071     2.43e-06  2.08e-05  5.77e-04  8.55e-04     2.1
    9    -157.1747386843189247    -5.06e-06  8.78e-06  1.77e-04  5.26e-05     2.0
   10    -157.1747386532794053     3.10e-08  3.78e-06  6.45e-05  6.28e-05     2.0
   11    -157.1747387736986639    -1.20e-07  2.78e-07  4.54e-06  1.76e-06     1.9
                  *** Gradient check signals convergence ***

               *****************************************************
               *                     SUCCESS                       *
               *           SCF CONVERGED AFTER  11 CYCLES          *
               *****************************************************

Recomputing exchange energy using gridx3       ... done (    3.555 sec)
Old exchange energy                            :     -4.712689285 Eh
New exchange energy                            :     -4.712683994 Eh
Exchange energy change after final integration :      0.000005291 Eh
Total energy after final integration           :   -157.174733483 Eh
             **** ENERGY FILE WAS UPDATED (gem.en.tmp) ****

----------------
TOTAL SCF ENERGY
----------------

Total Energy       :       -157.17473348297440 Eh           -4276.94193 eV

Components:
Nuclear Repulsion  :        119.89086093004211 Eh            3262.39618 eV
Electronic Energy  :       -277.06559970374076 Eh           -7539.33826 eV
One Electron Energy:       -447.07282384338521 Eh          -12165.47002 eV
Two Electron Energy:        170.00722413964448 Eh            4626.13176 eV

Virial components:
Potential Energy   :       -313.55555442381910 Eh           -8532.28041 eV
Kinetic Energy     :        156.38082094084473 Eh            4255.33848 eV
Virial Ratio       :          2.00507678970703

DFT components:
N(Alpha)           :       15.999989183974 electrons
N(Beta)            :       15.999989183974 electrons
N(Total)           :       31.999978367948 electrons
E(X)               :      -18.681054855189 Eh       
E(C)               :       -1.201345596335 Eh       
E(XC)              :      -19.882400451524 Eh       

---------------
SCF CONVERGENCE
---------------

  Last Energy change         ...    1.2042e-07  Tolerance :   1.0000e-08
  Last MAX-Density change    ...    4.5398e-06  Tolerance :   1.0000e-07
  Last RMS-Density change    ...    2.7831e-07  Tolerance :   5.0000e-09
  Last DIIS Error            ...    1.6383e-03  Tolerance :   5.0000e-07
  Last Orbital Gradient      ...    1.7559e-06  Tolerance :   1.0000e-05
  Last Orbital Rotation      ...    3.1539e-06  Tolerance :   1.0000e-05


----------------
ORBITAL ENERGIES
----------------

  NO   OCC          E(Eh)            E(eV) 
   0   2.0000     -10.177700      -276.9493 
   1   2.0000     -10.162081      -276.5243 
   2   2.0000     -10.162056      -276.5236 
   3   2.0000     -10.149441      -276.1803 
   4   2.0000      -0.806449       -21.9446 
   5   2.0000      -0.692569       -18.8458 
   6   2.0000      -0.679198       -18.4819 
   7   2.0000      -0.523119       -14.2348 
   8   2.0000      -0.453168       -12.3313 
   9   2.0000      -0.444631       -12.0990 
  10   2.0000      -0.432575       -11.7710 
  11   2.0000      -0.386333       -10.5127 
  12   2.0000      -0.370752       -10.0887 
  13   2.0000      -0.366087        -9.9617 
  14   2.0000      -0.339084        -9.2269 
  15   2.0000      -0.247847        -6.7443 
  16   0.0000       0.014501         0.3946 
  17   0.0000       0.037898         1.0313 
  18   0.0000       0.082881         2.2553 
  19   0.0000       0.086514         2.3542 
  20   0.0000       0.098533         2.6812 
  21   0.0000       0.112047         3.0490 
  22   0.0000       0.119722         3.2578 
  23   0.0000       0.141052         3.8382 
  24   0.0000       0.145396         3.9564 
  25   0.0000       0.166454         4.5294 
  26   0.0000       0.167431         4.5560 
*Only the first 10 virtual orbitals were printed.

                    ********************************
                    * MULLIKEN POPULATION ANALYSIS *
                    ********************************

-----------------------
MULLIKEN ATOMIC CHARGES
-----------------------
   0 C :   -0.275562
   1 C :    0.068826
   2 C :   -0.314963
   3 C :   -0.315332
   4 H :    0.107920
   5 H :    0.105412
   6 H :    0.107950
   7 H :    0.097151
   8 H :    0.097117
   9 H :    0.107937
  10 H :    0.105455
  11 H :    0.108090
Sum of atomic charges:    0.0000000

--------------------------------
MULLIKEN REDUCED ORBITAL CHARGES
--------------------------------
  0 C s       :     3.257657  s :     3.257657
      pz      :     1.043265  p :     2.969739
      px      :     0.920137
      py      :     1.006337
      dz2     :     0.004227  d :     0.043165
      dxz     :     0.009260
      dyz     :     0.003973
      dx2y2   :     0.010228
      dxy     :     0.015476
      f0      :     0.000771  f :     0.005001
      f+1     :     0.000552
      f-1     :     0.000404
      f+2     :     0.000863
      f-2     :     0.000405
      f+3     :     0.000885
      f-3     :     0.001122

  1 C s       :     3.195847  s :     3.195847
      pz      :     0.874792  p :     2.597105
      px      :     0.880959
      py      :     0.841354
      dz2     :     0.011444  d :     0.128657
      dxz     :     0.033267
      dyz     :     0.016278
      dx2y2   :     0.029391
      dxy     :     0.038278
      f0      :     0.000970  f :     0.009565
      f+1     :     0.000858
      f-1     :     0.000972
      f+2     :     0.001254
      f-2     :     0.001332
      f+3     :     0.002369
      f-3     :     0.001809

  2 C s       :     3.276534  s :     3.276534
      pz      :     1.010858  p :     2.989377
      px      :     1.047100
      py      :     0.931419
      dz2     :     0.008811  d :     0.045552
      dxz     :     0.008165
      dyz     :     0.009279
      dx2y2   :     0.006063
      dxy     :     0.013234
      f0      :     0.000176  f :     0.003500
      f+1     :     0.000511
      f-1     :     0.000504
      f+2     :     0.000380
      f-2     :     0.000775
      f+3     :     0.000342
      f-3     :     0.000812

  3 C s       :     3.276782  s :     3.276782
      pz      :     1.030306  p :     2.989494
      px      :     0.964955
      py      :     0.994233
      dz2     :     0.002442  d :     0.045555
      dxz     :     0.016604
      dyz     :     0.006698
      dx2y2   :     0.012399
      dxy     :     0.007412
      f0      :     0.000270  f :     0.003501
      f+1     :     0.000671
      f-1     :     0.000082
      f+2     :     0.000196
      f-2     :     0.000980
      f+3     :     0.000757
      f-3     :     0.000546

  4 H s       :     0.870708  s :     0.870708
      pz      :     0.010673  p :     0.021372
      px      :     0.006268
      py      :     0.004431

  5 H s       :     0.873028  s :     0.873028
      pz      :     0.004708  p :     0.021561
      px      :     0.009685
      py      :     0.007168

  6 H s       :     0.870683  s :     0.870683
      pz      :     0.007019  p :     0.021367
      px      :     0.007341
      py      :     0.007007

  7 H s       :     0.880602  s :     0.880602
      pz      :     0.005456  p :     0.022247
      px      :     0.009630
      py      :     0.007161

  8 H s       :     0.880636  s :     0.880636
      pz      :     0.006813  p :     0.022247
      px      :     0.003897
      py      :     0.011537

  9 H s       :     0.870696  s :     0.870696
      pz      :     0.009747  p :     0.021367
      px      :     0.006839
      py      :     0.004781

 10 H s       :     0.872985  s :     0.872985
      pz      :     0.005863  p :     0.021560
      px      :     0.004738
      py      :     0.010959

 11 H s       :     0.870545  s :     0.870545
      pz      :     0.007673  p :     0.021365
      px      :     0.007982
      py      :     0.005710



                     *******************************
                     * LOEWDIN POPULATION ANALYSIS *
                     *******************************

----------------------
LOEWDIN ATOMIC CHARGES
----------------------
   0 C :   -0.208199
   1 C :   -0.256608
   2 C :   -0.259912
   3 C :   -0.259938
   4 H :    0.125064
   5 H :    0.123849
   6 H :    0.125059
   7 H :    0.118349
   8 H :    0.118333
   9 H :    0.125060
  10 H :    0.123844
  11 H :    0.125097

-------------------------------
LOEWDIN REDUCED ORBITAL CHARGES
-------------------------------
  0 C s       :     2.844917  s :     2.844917
      pz      :     1.001063  p :     3.096990
      px      :     1.077890
      py      :     1.018037
      dz2     :     0.017073  d :     0.238486
      dxz     :     0.035386
      dyz     :     0.018747
      dx2y2   :     0.074227
      dxy     :     0.093054
      f0      :     0.003146  f :     0.027805
      f+1     :     0.004018
      f-1     :     0.000728
      f+2     :     0.003911
      f-2     :     0.002937
      f+3     :     0.006604
      f-3     :     0.006460

  1 C s       :     2.745622  s :     2.745622
      pz      :     0.856591  p :     2.912138
      px      :     1.083287
      py      :     0.972260
      dz2     :     0.051902  d :     0.541285
      dxz     :     0.107642
      dyz     :     0.065926
      dx2y2   :     0.150922
      dxy     :     0.164892
      f0      :     0.004420  f :     0.057564
      f+1     :     0.005895
      f-1     :     0.004604
      f+2     :     0.006538
      f-2     :     0.008523
      f+3     :     0.015872
      f-3     :     0.011712

  2 C s       :     2.822516  s :     2.822516
      pz      :     1.058350  p :     3.155313
      px      :     1.060148
      py      :     1.036814
      dz2     :     0.043330  d :     0.256661
      dxz     :     0.049039
      dyz     :     0.049857
      dx2y2   :     0.035117
      dxy     :     0.079318
      f0      :     0.002257  f :     0.025421
      f+1     :     0.002834
      f-1     :     0.004477
      f+2     :     0.003451
      f-2     :     0.003719
      f+3     :     0.003054
      f-3     :     0.005630

  3 C s       :     2.822523  s :     2.822523
      pz      :     1.062812  p :     3.155339
      px      :     1.041294
      py      :     1.051233
      dz2     :     0.021209  d :     0.256657
      dxz     :     0.077393
      dyz     :     0.041808
      dx2y2   :     0.063007
      dxy     :     0.053240
      f0      :     0.002835  f :     0.025419
      f+1     :     0.004121
      f-1     :     0.002102
      f+2     :     0.002107
      f-2     :     0.004204
      f+3     :     0.006144
      f-3     :     0.003908

  4 H s       :     0.814877  s :     0.814877
      pz      :     0.028984  p :     0.060059
      px      :     0.018127
      py      :     0.012949

  5 H s       :     0.816129  s :     0.816129
      pz      :     0.013482  p :     0.060021
      px      :     0.028193
      py      :     0.018346

  6 H s       :     0.814886  s :     0.814886
      pz      :     0.020796  p :     0.060055
      px      :     0.021022
      py      :     0.018236

  7 H s       :     0.819889  s :     0.819889
      pz      :     0.015782  p :     0.061761
      px      :     0.024329
      py      :     0.021650

  8 H s       :     0.819902  s :     0.819902
      pz      :     0.018814  p :     0.061765
      px      :     0.011532
      py      :     0.031419

  9 H s       :     0.814884  s :     0.814884
      pz      :     0.028243  p :     0.060056
      px      :     0.018215
      py      :     0.013598

 10 H s       :     0.816137  s :     0.816137
      pz      :     0.016753  p :     0.060019
      px      :     0.014174
      py      :     0.029091

 11 H s       :     0.814848  s :     0.814848
      pz      :     0.021547  p :     0.060055
      px      :     0.021090
      py      :     0.017418



                      *****************************
                      * MAYER POPULATION ANALYSIS *
                      *****************************

  NA   - Mulliken gross atomic population
  ZA   - Total nuclear charge
  QA   - Mulliken gross atomic charge
  VA   - Mayer's total valence
  BVA  - Mayer's bonded valence
  FA   - Mayer's free valence

  ATOM       NA         ZA         QA         VA         BVA        FA
  0 C      6.2756     6.0000    -0.2756     3.9227     3.9227     0.0000
  1 C      5.9312     6.0000     0.0688     3.7617     3.7617     0.0000
  2 C      6.3150     6.0000    -0.3150     3.8646     3.8646     0.0000
  3 C      6.3153     6.0000    -0.3153     3.8645     3.8645    -0.0000
  4 H      0.8921     1.0000     0.1079     0.9635     0.9635    -0.0000
  5 H      0.8946     1.0000     0.1054     0.9788     0.9788    -0.0000
  6 H      0.8921     1.0000     0.1079     0.9635     0.9635     0.0000
  7 H      0.9028     1.0000     0.0972     0.9774     0.9774     0.0000
  8 H      0.9029     1.0000     0.0971     0.9774     0.9774     0.0000
  9 H      0.8921     1.0000     0.1079     0.9635     0.9635     0.0000
 10 H      0.8945     1.0000     0.1055     0.9788     0.9788    -0.0000
 11 H      0.8919     1.0000     0.1081     0.9634     0.9634    -0.0000

  Mayer bond orders larger than 0.100000
B(  0-C ,  1-C ) :   1.8892 B(  0-C ,  7-H ) :   0.9655 B(  0-C ,  8-H ) :   0.9655 
B(  1-C ,  2-C ) :   0.9607 B(  1-C ,  3-C ) :   0.9607 B(  2-C ,  4-H ) :   0.9641 
B(  2-C ,  5-H ) :   0.9802 B(  2-C ,  6-H ) :   0.9642 B(  3-C ,  9-H ) :   0.9642 
B(  3-C , 10-H ) :   0.9803 B(  3-C , 11-H ) :   0.9641 

-------
TIMINGS
-------

Total SCF time: 0 days 0 hours 0 min 24 sec 

Total time                  ....      24.919 sec
Sum of individual times     ....      24.679 sec  ( 99.0%)

SCF preparation             ....       0.576 sec  (  2.3%)
Fock matrix formation       ....      23.366 sec  ( 93.8%)
  Startup                   ....       0.041 sec  (  0.2% of F)
  Split-RI-J                ....       1.447 sec  (  6.2% of F)
  Chain of spheres X        ....      16.641 sec  ( 71.2% of F)
  XC integration            ....       5.025 sec  ( 21.5% of F)
    XC Preparation          ....       0.000 sec  (  0.0% of XC)
    Basis function eval.    ....       1.453 sec  ( 28.9% of XC)
    Density eval.           ....       1.356 sec  ( 27.0% of XC)
    XC-Functional eval.     ....       0.192 sec  (  3.8% of XC)
    XC-Potential eval.      ....       1.346 sec  ( 26.8% of XC)
Diagonalization             ....       0.000 sec  (  0.0%)
Density matrix formation    ....       0.124 sec  (  0.5%)
Total Energy calculation    ....       0.038 sec  (  0.2%)
Population analysis         ....       0.036 sec  (  0.1%)
Orbital Transformation      ....       0.067 sec  (  0.3%)
Orbital Orthonormalization  ....       0.000 sec  (  0.0%)
DIIS solution               ....       0.316 sec  (  1.3%)
SOSCF solution              ....       0.157 sec  (  0.6%)
Finished LeanSCF after  24.9 sec

Maximum memory used throughout the entire LEANSCF-calculation: 16.1 MB


           ************************************************************
           *        Program running with 4 parallel MPI-processes     *
           *              working on a common directory               *
           ************************************************************

------------------------------------------------------------------------------
                         ORCA PROPERTY INTEGRAL CALCULATIONS
------------------------------------------------------------------------------

GBWName                                   ... gem.gbw
Number of atoms                           ...     12
Number of basis functions                 ...    172
Max core memory                           ...   1800 MB

Dipole integrals                          ... YES
Quadrupole integrals                      ...  NO
Linear momentum integrals                 ...  NO
Angular momentum integrals                ...  NO
Higher moments length integrals           ...  NO
Higher moments velocity integrals         ...  NO
Kinetic energy integrals                  ...  NO
GIAO right hand sides                     ...  NO
GIAO dipole derivative integrals          ...  NO
SOC integrals                             ...  NO
EPR diamagnetic integrals (GIAO)          ...  NO
EPR gauge integrals                       ...  NO
Field gradient integrals                  ...  NO (   0 nuclei)
Spin-dipole/Fermi contact integrals       ...  NO (   0 nuclei)
Contact density integrals                 ...  NO (   0 nuclei)
Nucleus-orbit integrals                   ...  NO (   0 nuclei)
Geometric perturbations                   ...  NO (  12 nuclei)

Choice of electric origin   ... Center of mass
Position of electric origin ... ( -0.1716,  1.1333, -0.7796) 
Choice of magnetic origin   ... GIAO
Position of magnetic origin ... (  0.0000,  0.0000,  0.0000) 

Calculating integrals                     ... Electric Dipole (Length)     done (  0.0 sec)

Property integrals calculated in   0.0 sec

Maximum memory used throughout the entire PROPINT-calculation: 11.3 MB


-------------------------------------------------------------------------------
                          DFT DISPERSION CORRECTION                            
                                                                               
                                DFTD4 V3.4.0                                   
-------------------------------------------------------------------------------
The B3LYP functional is recognized
Active option DFTDOPT                   ...         5   

-------------------------   ----------------
Dispersion correction           -0.011412095
-------------------------   ----------------


-------------------------   --------------------
FINAL SINGLE POINT ENERGY      -157.186145578467
-------------------------   --------------------



           ************************************************************
           *        Program running with 4 parallel MPI-processes     *
           *              working on a common directory               *
           ************************************************************
------------------------------------------------------------------------------
                         ORCA SCF GRADIENT CALCULATION
------------------------------------------------------------------------------

Nuc. rep. gradient        (SHARK) ... done (  0.0 sec)
HCore & Overlap gradient  (SHARK) ... done (  0.1 sec)
Split-RIJ-J gradient      (SHARK) ... done (  0.7 sec)
COSX-gradient                     ... done ( 14.8 sec)
XC gradient                       ... done (  3.6 sec)
Dispersion correction             ... done (  0.1 sec)

-------------------
DISPERSION GRADIENT
-------------------

   1   C   :   -0.000469511    0.000139051    0.000102885
   2   C   :   -0.000020202    0.000005980    0.000004429
   3   C   :    0.000060060   -0.000405751   -0.000188660
   4   C   :    0.000330313    0.000290133    0.000103029
   5   H   :    0.000029754   -0.000110600   -0.000092585
   6   H   :   -0.000006313   -0.000106485   -0.000047562
   7   H   :    0.000035413   -0.000140481   -0.000026556
   8   H   :   -0.000135752    0.000016813    0.000019193
   9   H   :   -0.000119498    0.000058818    0.000036766
  10   H   :    0.000110466    0.000097124   -0.000005407
  11   H   :    0.000069166    0.000087935    0.000033753
  12   H   :    0.000116105    0.000067464    0.000060715

Difference to translation invariance:
           :   -0.0000000000    0.0000000000    0.0000000000

Difference to rotation invariance:
           :    0.0000000000    0.0000000000    0.0000000000

Norm of the Dispersion gradient    ...    0.0009004402
RMS gradient                       ...    0.0001500734
MAX gradient                       ...    0.0004695112

------------------
CARTESIAN GRADIENT
------------------

   1   C   :   -0.000008342    0.000005664   -0.000005994
   2   C   :   -0.000021676    0.000002722    0.000012340
   3   C   :    0.000015783   -0.000010367   -0.000001228
   4   C   :    0.000017926    0.000000114    0.000001078
   5   H   :   -0.000003174    0.000001082   -0.000000296
   6   H   :   -0.000004598    0.000002525    0.000004409
   7   H   :    0.000002673    0.000003902   -0.000002153
   8   H   :    0.000002975   -0.000002669    0.000000597
   9   H   :    0.000004507    0.000001710   -0.000000648
  10   H   :   -0.000000425   -0.000002266   -0.000001158
  11   H   :   -0.000005334   -0.000000023   -0.000002007
  12   H   :   -0.000000316   -0.000002394   -0.000004940

Difference to translation invariance:
           :   -0.0000000000   -0.0000000000    0.0000000000

Difference to rotation invariance:
           :   -0.0000302093    0.0000212542   -0.0000121730

Norm of the Cartesian gradient     ...    0.0000405267
RMS gradient                       ...    0.0000067545
MAX gradient                       ...    0.0000216760

-------
TIMINGS
-------

Total SCF gradient time     ....       19.281 sec

Densities                   ....       0.001 sec  (  0.0%)
One electron gradient       ....       0.110 sec  (  0.6%)
RI-J Coulomb gradient       ....       0.673 sec  (  3.5%)
COSX gradient               ....      14.842 sec  ( 77.0%)
XC gradient                 ....       3.556 sec  ( 18.4%)

Maximum memory used throughout the entire SCFGRAD-calculation: 29.8 MB
------------------------------------------------------------------------------
                         ORCA GEOMETRY RELAXATION STEP
------------------------------------------------------------------------------

Reading the OPT-File                    .... done
Getting information on internals        .... done
Copying old internal coords+grads       .... done
Making the new internal coordinates     .... (2022 redundants) done
Validating the new internal coordinates .... (2022 redundants) done
Calculating the B-matrix                .... done
Calculating the G,G- and P matrices     .... done
Transforming gradient to internals      .... done
Projecting the internal gradient        .... done
Number of atoms                         ....  12
Number of internal coordinates          ....  43
Current Energy                          ....  -157.186145578 Eh
Current gradient norm                   ....     0.000040527 Eh/bohr
Maximum allowed component of the step   ....  0.300
Current trust radius                    ....  0.300
Evaluating the initial hessian          ....  (Almloef) done
Projecting the Hessian                  .... done
Forming the augmented Hessian           .... done
Diagonalizing the augmented Hessian     .... done
Last element of RFO vector              ....  0.999999799
Lowest eigenvalues of augmented Hessian:
 -0.000000007  0.012632267  0.012633561  0.022477345  0.043374617
Length of the computed step             ....  0.000634494
The final length of the internal step   ....  0.000634494
Converting the step to Cartesian space:
 Initial RMS(Int)=    0.0000967594
Transforming coordinates:
 Iter   0:  RMS(Cart)=    0.0001390677 RMS(Int)=    0.0000967594
done
Storing new coordinates                 .... done

                                .--------------------.
          ----------------------|Geometry convergence|-------------------------
          Item                value                   Tolerance       Converged
          ---------------------------------------------------------------------
          RMS gradient        0.0000044698            0.0001000000      YES
          MAX gradient        0.0000178646            0.0003000000      YES
          RMS step            0.0000967594            0.0020000000      YES
          MAX step            0.0003031613            0.0040000000      YES
          ........................................................
          Max(Bonds)      0.0000      Max(Angles)    0.00
          Max(Dihed)        0.02      Max(Improp)    0.00
          ---------------------------------------------------------------------

                    ***********************HURRAY********************
                    ***        THE OPTIMIZATION HAS CONVERGED     ***
                    *************************************************


    ---------------------------------------------------------------------------
                         Redundant Internal Coordinates

                          --- Optimized Parameters ---  
                            (Angstroem and degrees)

        Definition                    OldVal   dE/dq     Step     FinalVal
    ----------------------------------------------------------------------------
     1. B(C   1,C   0)                1.3306  0.000001 -0.0000    1.3306   
     2. B(C   2,C   1)                1.5026  0.000005 -0.0000    1.5026   
     3. B(C   3,C   1)                1.5026  0.000005 -0.0000    1.5026   
     4. B(H   4,C   2)                1.0948 -0.000000  0.0000    1.0948   
     5. B(H   5,C   2)                1.0900  0.000001 -0.0000    1.0900   
     6. B(H   6,C   2)                1.0948 -0.000002  0.0000    1.0948   
     7. B(H   7,C   0)                1.0835 -0.000000  0.0000    1.0835   
     8. B(H   8,C   0)                1.0834 -0.000000  0.0000    1.0834   
     9. B(H   9,C   3)                1.0948 -0.000001  0.0000    1.0948   
    10. B(H  10,C   3)                1.0900  0.000001 -0.0000    1.0900   
    11. B(H  11,C   3)                1.0948 -0.000002  0.0000    1.0948   
    12. A(H   7,C   0,H   8)          116.87  0.000006   -0.00    116.87   
    13. A(C   1,C   0,H   8)          121.57 -0.000003    0.00    121.57   
    14. A(C   1,C   0,H   7)          121.56 -0.000003    0.00    121.56   
    15. A(C   0,C   1,C   3)          122.21  0.000009   -0.00    122.21   
    16. A(C   2,C   1,C   3)          115.59 -0.000018    0.00    115.59   
    17. A(C   0,C   1,C   2)          122.20  0.000009   -0.00    122.20   
    18. A(C   1,C   2,H   6)          110.81  0.000001   -0.00    110.81   
    19. A(H   4,C   2,H   5)          108.35  0.000003   -0.00    108.35   
    20. A(C   1,C   2,H   5)          111.83 -0.000007    0.00    111.83   
    21. A(H   5,C   2,H   6)          108.35  0.000006   -0.00    108.35   
    22. A(C   1,C   2,H   4)          110.78 -0.000003    0.00    110.78   
    23. A(H   4,C   2,H   6)          106.53 -0.000000    0.00    106.53   
    24. A(H   9,C   3,H  10)          108.34  0.000004   -0.00    108.34   
    25. A(C   1,C   3,H  10)          111.85 -0.000007    0.00    111.85   
    26. A(C   1,C   3,H   9)          110.79 -0.000000    0.00    110.79   
    27. A(H  10,C   3,H  11)          108.34  0.000006   -0.00    108.34   
    28. A(H   9,C   3,H  11)          106.53 -0.000000    0.00    106.53   
    29. A(C   1,C   3,H  11)          110.79 -0.000002    0.00    110.79   
    30. D(C   3,C   1,C   0,H   7)   -180.00  0.000001    0.00   -180.00   
    31. D(C   2,C   1,C   0,H   8)   -179.99  0.000001   -0.00   -179.99   
    32. D(C   2,C   1,C   0,H   7)      0.02  0.000001   -0.00      0.02   
    33. D(C   3,C   1,C   0,H   8)     -0.00  0.000000    0.00     -0.00   
    34. D(H   4,C   2,C   1,C   3)    -59.08 -0.000004    0.01    -59.06   
    35. D(H   4,C   2,C   1,C   0)    120.91 -0.000004    0.02    120.92   
    36. D(H   6,C   2,C   1,C   0)   -121.08 -0.000006    0.02   -121.06   
    37. D(H   5,C   2,C   1,C   3)    179.93 -0.000002    0.01    179.95   
    38. D(H   5,C   2,C   1,C   0)     -0.08 -0.000002    0.02     -0.06   
    39. D(H  11,C   3,C   1,C   0)    120.80  0.000002   -0.00    120.80   
    40. D(H  10,C   3,C   1,C   2)    179.79 -0.000000   -0.00    179.79   
    41. D(H  10,C   3,C   1,C   0)     -0.19  0.000001   -0.00     -0.20   
    42. D(H   9,C   3,C   1,C   2)     58.80 -0.000000   -0.00     58.80   
    43. D(H   9,C   3,C   1,C   0)   -121.19  0.000001   -0.00   -121.19   
    ----------------------------------------------------------------------------

Geometry step timings:
Preparation and reading OPT file:      0.001 s (11.091 %)
Internal coordinates            :      0.000 s ( 0.405 %)
B/P matrices and projection     :      0.001 s ( 9.276 %)
Hessian update/contruction      :      0.004 s (38.849 %)
Making the step                 :      0.001 s ( 6.542 %)
Converting the step to Cartesian:      0.000 s ( 1.145 %)
Storing new data                :      0.001 s ( 9.799 %)
Checking convergence            :      0.000 s ( 0.059 %)
Final printing                  :      0.002 s (22.765 %)
Total time                      :      0.010 s
                 *******************************************************
                 *** FINAL ENERGY EVALUATION AT THE STATIONARY POINT ***
                 ***               (AFTER    1 CYCLES)               ***
                 *******************************************************
---------------------------------
CARTESIAN COORDINATES (ANGSTROEM)
---------------------------------
  C     -1.433240    0.997418   -0.118217
  C     -0.184693    0.627585   -0.391860
  C      0.138077   -0.699055   -1.019319
  C      0.995283    1.508959   -0.094115
  H      0.665661   -0.561669   -1.968683
  H     -0.759824   -1.287549   -1.207696
  H      0.803525   -1.282461   -0.374811
  H     -2.276409    0.353260   -0.337378
  H     -1.654431    1.956682    0.334277
  H      1.558237    1.726386   -1.007536
  H      0.692192    2.454593    0.355343
  H      1.690482    1.010091    0.588845

----------------------------
CARTESIAN COORDINATES (A.U.)
----------------------------
  NO LB      ZA    FRAG     MASS         X           Y           Z
   0 C     6.0000    0    12.011   -2.708430    1.884847   -0.223397
   1 C     6.0000    0    12.011   -0.349018    1.185964   -0.740508
   2 C     6.0000    0    12.011    0.260927   -1.321022   -1.926233
   3 C     6.0000    0    12.011    1.880812    2.851518   -0.177851
   4 H     1.0000    0     1.008    1.257918   -1.061400   -3.720272
   5 H     1.0000    0     1.008   -1.435860   -2.433114   -2.282216
   6 H     1.0000    0     1.008    1.518442   -2.423500   -0.708291
   7 H     1.0000    0     1.008   -4.301790    0.667564   -0.637553
   8 H     1.0000    0     1.008   -3.126422    3.697593    0.631693
   9 H     1.0000    0     1.008    2.944641    3.262397   -1.903967
  10 H     1.0000    0     1.008    1.308054    4.638509    0.671502
  11 H     1.0000    0     1.008    3.194548    1.908795    1.112755

--------------------------------
INTERNAL COORDINATES (ANGSTROEM)
--------------------------------
 C      0   0   0     0.000000000000     0.00000000     0.00000000
 C      1   0   0     1.330611375844     0.00000000     0.00000000
 C      2   1   0     1.502617204027   122.19645634     0.00000000
 C      2   1   3     1.502602316415   122.21341471   179.98789385
 H      3   2   1     1.094766685057   110.78349885   120.92467161
 H      3   2   1     1.089971462292   111.83292478   359.93578822
 H      3   2   1     1.094793598414   110.80685308   238.94052358
 H      1   2   3     1.083470072020   121.55871931     0.00000000
 H      1   2   3     1.083449773926   121.56982359   180.00946427
 H      4   2   1     1.094773713263   110.79201357   238.80695323
 H      4   2   1     1.090000856281   111.85281015   359.80378522
 H      4   2   1     1.094808073206   110.79271600   120.79582151

---------------------------
INTERNAL COORDINATES (A.U.)
---------------------------
 C      0   0   0     0.000000000000     0.00000000     0.00000000
 C      1   0   0     2.514491091025     0.00000000     0.00000000
 C      2   1   0     2.839534999729   122.19645634     0.00000000
 C      2   1   3     2.839506866220   122.21341471   179.98789385
 H      3   2   1     2.068809215298   110.78349885   120.92467161
 H      3   2   1     2.059747557521   111.83292478   359.93578822
 H      3   2   1     2.068860074172   110.80685308   238.94052358
 H      1   2   3     2.047461710417   121.55871931     0.00000000
 H      1   2   3     2.047423352578   121.56982359   180.00946427
 H      4   2   1     2.068822496683   110.79201357   238.80695323
 H      4   2   1     2.059803104110   111.85281015   359.80378522
 H      4   2   1     2.068887427565   110.79271600   120.79582151

---------------------
BASIS SET INFORMATION
---------------------
There are 2 groups of distinct atoms

 Group   1 Type C   : 11s6p2d1f contracted to 5s3p2d1f pattern {62111/411/11/1}
 Group   2 Type H   : 5s1p contracted to 3s1p pattern {311/1}

Atom   0C    basis set group =>   1
Atom   1C    basis set group =>   1
Atom   2C    basis set group =>   1
Atom   3C    basis set group =>   1
Atom   4H    basis set group =>   2
Atom   5H    basis set group =>   2
Atom   6H    basis set group =>   2
Atom   7H    basis set group =>   2
Atom   8H    basis set group =>   2
Atom   9H    basis set group =>   2
Atom  10H    basis set group =>   2
Atom  11H    basis set group =>   2
---------------------------------
AUXILIARY/J BASIS SET INFORMATION
---------------------------------
There are 2 groups of distinct atoms

 Group   1 Type C   : 12s5p4d2f1g contracted to 6s4p3d1f1g pattern {711111/2111/211/2/1}
 Group   2 Type H   : 5s2p1d contracted to 3s1p1d pattern {311/2/1}

Atom   0C    basis set group =>   1
Atom   1C    basis set group =>   1
Atom   2C    basis set group =>   1
Atom   3C    basis set group =>   1
Atom   4H    basis set group =>   2
Atom   5H    basis set group =>   2
Atom   6H    basis set group =>   2
Atom   7H    basis set group =>   2
Atom   8H    basis set group =>   2
Atom   9H    basis set group =>   2
Atom  10H    basis set group =>   2
Atom  11H    basis set group =>   2


           ************************************************************
           *        Program running with 4 parallel MPI-processes     *
           *              working on a common directory               *
           ************************************************************
------------------------------------------------------------------------------
                             ORCA STARTUP CALCULATIONS
                           -- RI-GTO INTEGRALS CHOSEN --
------------------------------------------------------------------------------
------------------------------------------------------------------------------
                   ___                                                        
                  /   \      - P O W E R E D   B Y -                         
                 /     \                                                     
                 |  |  |   _    _      __       _____    __    __             
                 |  |  |  | |  | |    /  \     |  _  \  |  |  /  |          
                  \  \/   | |  | |   /    \    | | | |  |  | /  /          
                 / \  \   | |__| |  /  /\  \   | |_| |  |  |/  /          
                |  |  |   |  __  | /  /__\  \  |    /   |      \           
                |  |  |   | |  | | |   __   |  |    \   |  |\   \          
                \     /   | |  | | |  |  |  |  | |\  \  |  | \   \       
                 \___/    |_|  |_| |__|  |__|  |_| \__\ |__|  \__/        
                                                                              
                      - O R C A' S   B I G   F R I E N D -                    
                                      &                                       
                       - I N T E G R A L  F E E D E R -                       
                                                                              
 v1 FN, 2020, v2 2021, v3 2022-2024                                           
------------------------------------------------------------------------------


----------------------
SHARK INTEGRAL PACKAGE
----------------------

Number of atoms                             ...     12
Number of basis functions                   ...    172
Number of shells                            ...     76
Maximum angular momentum                    ...      3
Integral batch strategy                     ... SHARK/LIBINT Hybrid
RI-J (if used) integral strategy            ... SPLIT-RIJ (Revised 2003 algorithm where possible)
Printlevel                                  ...      1
Contraction scheme used                     ... SEGMENTED contraction
Prescreening option                         ... SCHWARTZ
   Thresh                                   ... 2.500e-11
   Tcut                                     ... 2.500e-12
   Tpresel                                  ... 2.500e-12 
Coulomb Range Separation                    ... NOT USED
Exchange Range Separation                   ... NOT USED
Multipole approximations                    ... NOT USED
Finite Nucleus Model                        ... NOT USED
CABS basis                                  ... NOT available
Auxiliary Coulomb fitting basis             ... AVAILABLE
   # of basis functions in Aux-J            ...    284
   # of shells in Aux-J                     ...    100
   Maximum angular momentum in Aux-J        ...      4
Auxiliary J/K fitting basis                 ... NOT available
Auxiliary Correlation fitting basis         ... NOT available
Auxiliary 'external' fitting basis          ... NOT available

Checking pre-screening integrals            ... done (  0.0 sec) Dimension = 76
Check shell pair data                       ... done (  0.0 sec)
Shell pair information
Shell pair cut-off parameter TPreSel        ...   2.5e-12
Total number of shell pairs                 ...      2926
Shell pairs after pre-screening             ...      2860
Total number of primitive shell pairs       ...      8368
Primitive shell pairs kept                  ...      6714
          la=0 lb=0:    940 shell pairs
          la=1 lb=0:    864 shell pairs
          la=1 lb=1:    210 shell pairs
          la=2 lb=0:    352 shell pairs
          la=2 lb=1:    160 shell pairs
          la=2 lb=2:     36 shell pairs
          la=3 lb=0:    176 shell pairs
          la=3 lb=1:     80 shell pairs
          la=3 lb=2:     32 shell pairs
          la=3 lb=3:     10 shell pairs

Calculating one electron integrals          ... done (  0.0 sec)
Calculating RI/J V-Matrix + Cholesky decomp.... done (  0.0 sec)
Calculating Nuclear repulsion               ... done (  0.0 sec) ENN=    119.890970001743 Eh

Diagonalization of the overlap matrix:
Smallest eigenvalue                        ... 1.301e-04
Time for diagonalization                   ...    0.011 sec
Threshold for overlap eigenvalues          ... 1.000e-07
Number of eigenvalues below threshold      ... 0
Time for construction of square roots      ...    0.009 sec
Total time needed                          ...    0.032 sec

-------------------
DFT GRID GENERATION
-------------------

General Integration Accuracy     IntAcc      ... 4.388
Radial Grid Type                 RadialGrid  ... OptM3 with GC (2021)
Angular Grid (max. ang.)         AngularGrid ... 4 (Lebedev-302)
Angular grid pruning method      GridPruning ... 4 (adaptive)
Weight generation scheme         WeightScheme... mBecke (2022)
Basis function cutoff            BFCut       ... 1.0000e-11
Integration weight cutoff        WCut        ... 1.0000e-14
Partially contracted basis set               ... off
Rotationally invariant grid construction     ... off
Angular grids for H and He will be reduced by one unit

Total number of grid points                  ...    50101
Total number of batches                      ...      789
Average number of points per batch           ...       63
Average number of grid points per atom       ...     4175

--------------------
COSX GRID GENERATION
--------------------

GRIDX 1
-------
General Integration Accuracy     IntAcc      ... 3.816
Radial Grid Type                 RadialGrid  ... OptM3 with GC (2021)
Angular Grid (max. ang.)         AngularGrid ... 1 (Lebedev-50)
Angular grid pruning method      GridPruning ... 4 (adaptive)
Weight generation scheme         WeightScheme... mBecke (2022)
Basis function cutoff            BFCut       ... 1.0000e-11
Integration weight cutoff        WCut        ... 1.0000e-14
Partially contracted basis set               ... on
Rotationally invariant grid construction     ... off
Angular grids for H and He will be reduced by one unit

Total number of grid points                  ...     6463
Total number of batches                      ...       58
Average number of points per batch           ...      111
Average number of grid points per atom       ...      539
UseSFitting                                  ... on

GRIDX 2
-------
General Integration Accuracy     IntAcc      ... 4.020
Radial Grid Type                 RadialGrid  ... OptM3 with GC (2021)
Angular Grid (max. ang.)         AngularGrid ... 2 (Lebedev-110)
Angular grid pruning method      GridPruning ... 4 (adaptive)
Weight generation scheme         WeightScheme... mBecke (2022)
Basis function cutoff            BFCut       ... 1.0000e-11
Integration weight cutoff        WCut        ... 1.0000e-14
Partially contracted basis set               ... on
Rotationally invariant grid construction     ... off
Angular grids for H and He will be reduced by one unit

Total number of grid points                  ...    13490
Total number of batches                      ...      111
Average number of points per batch           ...      121
Average number of grid points per atom       ...     1124
UseSFitting                                  ... on

GRIDX 3
-------
General Integration Accuracy     IntAcc      ... 4.338
Radial Grid Type                 RadialGrid  ... OptM3 with GC (2021)
[...]


--------------------------
THERMOCHEMISTRY AT 330.00K
--------------------------

Temperature         ...   330.00 K
Pressure            ...     1.00 atm
Total Mass          ...    56.11 AMU
Quasi RRHO          ...     True
Cut-Off Frequency   ...     1.00 cm^-1

Throughout the following assumptions are being made:
  (1) The electronic state is orbitally nondegenerate
  (2) There are no thermally accessible electronically excited states
  (3) Hindered rotations indicated by low frequency modes are not
      treated as such but are treated as vibrations and this may
      cause some error
  (4) All equations used are the standard statistical mechanics
      equations for an ideal gas
  (5) All vibrations are strictly harmonic

freq.     172.66  E(vib)   ...       0.44 
freq.     211.00  E(vib)   ...       0.40 
freq.     382.83  E(vib)   ...       0.25 
freq.     440.45  E(vib)   ...       0.22 
freq.     442.08  E(vib)   ...       0.22 
freq.     706.49  E(vib)   ...       0.10 
freq.     817.60  E(vib)   ...       0.07 
freq.     921.17  E(vib)   ...       0.05 
freq.     963.16  E(vib)   ...       0.04 
freq.     989.19  E(vib)   ...       0.04 
freq.    1022.78  E(vib)   ...       0.03 
freq.    1086.55  E(vib)   ...       0.03 
freq.    1108.42  E(vib)   ...       0.03 
freq.    1299.15  E(vib)   ...       0.01 
freq.    1410.04  E(vib)   ...       0.01 
freq.    1415.26  E(vib)   ...       0.01 
freq.    1445.16  E(vib)   ...       0.01 
freq.    1470.68  E(vib)   ...       0.01 
freq.    1482.65  E(vib)   ...       0.01 
freq.    1488.46  E(vib)   ...       0.01 
freq.    1502.01  E(vib)   ...       0.01 
freq.    1716.86  E(vib)   ...       0.00 
freq.    3009.14  E(vib)   ...       0.00 
freq.    3014.91  E(vib)   ...       0.00 
freq.    3050.01  E(vib)   ...       0.00 
freq.    3052.90  E(vib)   ...       0.00 
freq.    3103.35  E(vib)   ...       0.00 
freq.    3105.09  E(vib)   ...       0.00 
freq.    3132.16  E(vib)   ...       0.00 
freq.    3209.46  E(vib)   ...       0.00 

------------
INNER ENERGY
------------

The inner energy is: U= E(el) + E(ZPE) + E(vib) + E(rot) + E(trans)
    E(el)   - is the total energy from the electronic structure calculation
              = E(kin-el) + E(nuc-el) + E(el-el) + E(nuc-nuc)
    E(ZPE)  - the the zero temperature vibrational energy from the frequency calculation
    E(vib)  - the the finite temperature correction to E(ZPE) due to population
              of excited vibrational states
    E(rot)  - is the rotational thermal energy
    E(trans)- is the translational thermal energy

Summary of contributions to the inner energy U:
Electronic energy                ...   -157.18614559 Eh
Zero point energy                ...      0.10746498 Eh      67.44 kcal/mol
Thermal vibrational correction   ...      0.00314416 Eh       1.97 kcal/mol
Thermal rotational correction    ...      0.00156757 Eh       0.98 kcal/mol
Thermal translational correction ...      0.00156757 Eh       0.98 kcal/mol
-----------------------------------------------------------------------
Total thermal energy                   -157.07240132 Eh


Summary of corrections to the electronic energy:
(perhaps to be used in another calculation)
Total thermal correction                  0.00627929 Eh       3.94 kcal/mol
Non-thermal (ZPE) correction              0.10746498 Eh      67.44 kcal/mol
-----------------------------------------------------------------------
Total correction                          0.11374427 Eh      71.38 kcal/mol


--------
ENTHALPY
--------

The enthalpy is H = U + kB*T
                kB is Boltzmann's constant
Total thermal energy              ...   -157.07240132 Eh 
Thermal Enthalpy correction       ...      0.00104507 Eh       0.66 kcal/mol
-----------------------------------------------------------------------
Total Enthalpy                    ...   -157.07135624 Eh


Note: Only C1 symmetry has been detected, increase convergence thresholds 
      if your molecule has a higher symmetry. Symmetry factor of 1.0 is   
      used for the rotational entropy correction. 
 

Note: Rotational entropy computed according to Herzberg 
Infrared and Raman Spectra, Chapter V,1, Van Nostrand Reinhold, 1945 
Point Group:  C1, Symmetry Number:   1  
Rotational constants in cm-1:     0.306234     0.280844     0.154848 

Vibrational entropy computed according to the QRRHO of S. Grimme
Chem.Eur.J. 2012 18 9955 using a reference frequency of 100.0 cm-1


-------
ENTROPY
-------

The entropy contributions are T*S = T*(S(el)+S(vib)+S(rot)+S(trans))
     S(el)   - electronic entropy
     S(vib)  - vibrational entropy
     S(rot)  - rotational entropy
     S(trans)- translational entropy
The entropies will be listed as multiplied by the temperature to get
units of energy

Electronic entropy                ...      0.00000000 Eh      0.00 kcal/mol
Vibrational entropy               ...      0.00505670 Eh      3.17 kcal/mol
Rotational entropy                ...      0.01294251 Eh      8.12 kcal/mol
Translational entropy             ...      0.02024646 Eh     12.70 kcal/mol
-----------------------------------------------------------------------
Final entropy term                ...      0.03824566 Eh     24.00 kcal/mol

In case the symmetry of your molecule has not been determined correctly
or in case you have a reason to use a different symmetry number we print 
out the resulting rotational entropy values for sn=1,12:

 non-linear molecules -----------------------------------
|  sn= 1 | S(rot)=       0.01294251 Eh      8.12 kcal/mol|
|  sn= 2 | S(rot)=       0.01221814 Eh      7.67 kcal/mol|
|  sn= 3 | S(rot)=       0.01179441 Eh      7.40 kcal/mol|
|  sn= 4 | S(rot)=       0.01149377 Eh      7.21 kcal/mol|
|  sn= 5 | S(rot)=       0.01126058 Eh      7.07 kcal/mol|
|  sn= 6 | S(rot)=       0.01107004 Eh      6.95 kcal/mol|
|  sn= 7 | S(rot)=       0.01090895 Eh      6.85 kcal/mol|
|  sn= 8 | S(rot)=       0.01076940 Eh      6.76 kcal/mol|
|  sn= 9 | S(rot)=       0.01064631 Eh      6.68 kcal/mol|
|  sn=10 | S(rot)=       0.01053621 Eh      6.61 kcal/mol|
|  sn=11 | S(rot)=       0.01043660 Eh      6.55 kcal/mol|
|  sn=12 | S(rot)=       0.01034567 Eh      6.49 kcal/mol|
 linear molecules ---------------------------------------
|  Dinfh | S(rot)=       0.00795014 Eh      4.99 kcal/mol|
|  Cinfv | S(rot)=       0.00867451 Eh      5.44 kcal/mol|
 --------------------------------------------------------


-------------------
GIBBS FREE ENERGY
-------------------

The Gibbs free energy is G = H - T*S

Total enthalpy                    ...   -157.07135624 Eh 
Total entropy correction          ...     -0.03824566 Eh    -24.00 kcal/mol
-----------------------------------------------------------------------
Final Gibbs free energy         ...   -157.10960191 Eh

For completeness - the Gibbs free energy minus the electronic energy
G-E(el)                           ...      0.07654368 Eh     48.03 kcal/mol


The first frequency considered to be a vibration is 6
The total number of vibrations considered is 30


--------------------------
THERMOCHEMISTRY AT 450.00K
--------------------------

Temperature         ...   450.00 K
Pressure            ...     1.00 atm
Total Mass          ...    56.11 AMU
Quasi RRHO          ...     True
Cut-Off Frequency   ...     1.00 cm^-1

Throughout the following assumptions are being made:
  (1) The electronic state is orbitally nondegenerate
  (2) There are no thermally accessible electronically excited states
  (3) Hindered rotations indicated by low frequency modes are not
      treated as such but are treated as vibrations and this may
      cause some error
  (4) All equations used are the standard statistical mechanics
      equations for an ideal gas
  (5) All vibrations are strictly harmonic

freq.     172.66  E(vib)   ...       0.67 
freq.     211.00  E(vib)   ...       0.63 
freq.     382.83  E(vib)   ...       0.46 
freq.     440.45  E(vib)   ...       0.41 
freq.     442.08  E(vib)   ...       0.41 
freq.     706.49  E(vib)   ...       0.24 
freq.     817.60  E(vib)   ...       0.18 
freq.     921.17  E(vib)   ...       0.15 
freq.     963.16  E(vib)   ...       0.13 
freq.     989.19  E(vib)   ...       0.12 
freq.    1022.78  E(vib)   ...       0.12 
freq.    1086.55  E(vib)   ...       0.10 
freq.    1108.42  E(vib)   ...       0.09 
freq.    1299.15  E(vib)   ...       0.06 
freq.    1410.04  E(vib)   ...       0.04 
freq.    1415.26  E(vib)   ...       0.04 
freq.    1445.16  E(vib)   ...       0.04 
freq.    1470.68  E(vib)   ...       0.04 
freq.    1482.65  E(vib)   ...       0.04 
freq.    1488.46  E(vib)   ...       0.04 
freq.    1502.01  E(vib)   ...       0.04 
freq.    1716.86  E(vib)   ...       0.02 
freq.    3009.14  E(vib)   ...       0.00 
freq.    3014.91  E(vib)   ...       0.00 
freq.    3050.01  E(vib)   ...       0.00 
freq.    3052.90  E(vib)   ...       0.00 
freq.    3103.35  E(vib)   ...       0.00 
freq.    3105.09  E(vib)   ...       0.00 
freq.    3132.16  E(vib)   ...       0.00 
freq.    3209.46  E(vib)   ...       0.00 

------------
INNER ENERGY
------------

The inner energy is: U= E(el) + E(ZPE) + E(vib) + E(rot) + E(trans)
    E(el)   - is the total energy from the electronic structure calculation
              = E(kin-el) + E(nuc-el) + E(el-el) + E(nuc-nuc)
    E(ZPE)  - the the zero temperature vibrational energy from the frequency calculation
    E(vib)  - the the finite temperature correction to E(ZPE) due to population
              of excited vibrational states
    E(rot)  - is the rotational thermal energy
    E(trans)- is the translational thermal energy

Summary of contributions to the inner energy U:
Electronic energy                ...   -157.18614559 Eh
Zero point energy                ...      0.10746498 Eh      67.44 kcal/mol
Thermal vibrational correction   ...      0.00647302 Eh       4.06 kcal/mol
Thermal rotational correction    ...      0.00213759 Eh       1.34 kcal/mol
Thermal translational correction ...      0.00213759 Eh       1.34 kcal/mol
-----------------------------------------------------------------------
Total thermal energy                   -157.06793242 Eh


Summary of corrections to the electronic energy:
(perhaps to be used in another calculation)
Total thermal correction                  0.01074819 Eh       6.74 kcal/mol
Non-thermal (ZPE) correction              0.10746498 Eh      67.44 kcal/mol
-----------------------------------------------------------------------
Total correction                          0.11821317 Eh      74.18 kcal/mol


--------
ENTHALPY
--------

The enthalpy is H = U + kB*T
                kB is Boltzmann's constant
Total thermal energy              ...   -157.06793242 Eh 
Thermal Enthalpy correction       ...      0.00142510 Eh       0.89 kcal/mol
-----------------------------------------------------------------------
Total Enthalpy                    ...   -157.06650731 Eh


Note: Only C1 symmetry has been detected, increase convergence thresholds 
      if your molecule has a higher symmetry. Symmetry factor of 1.0 is   
      used for the rotational entropy correction. 
 

Note: Rotational entropy computed according to Herzberg 
Infrared and Raman Spectra, Chapter V,1, Van Nostrand Reinhold, 1945 
Point Group:  C1, Symmetry Number:   1  
Rotational constants in cm-1:     0.306234     0.280844     0.154848 

Vibrational entropy computed according to the QRRHO of S. Grimme
Chem.Eur.J. 2012 18 9955 using a reference frequency of 100.0 cm-1


-------
ENTROPY
-------

The entropy contributions are T*S = T*(S(el)+S(vib)+S(rot)+S(trans))
     S(el)   - electronic entropy
     S(vib)  - vibrational entropy
     S(rot)  - rotational entropy
     S(trans)- translational entropy
The entropies will be listed as multiplied by the temperature to get
units of energy

Electronic entropy                ...      0.00000000 Eh      0.00 kcal/mol
Vibrational entropy               ...      0.01069845 Eh      6.71 kcal/mol
Rotational entropy                ...      0.01831186 Eh     11.49 kcal/mol
Translational entropy             ...      0.02871378 Eh     18.02 kcal/mol
-----------------------------------------------------------------------
Final entropy term                ...      0.05772409 Eh     36.22 kcal/mol

In case the symmetry of your molecule has not been determined correctly
or in case you have a reason to use a different symmetry number we print 
out the resulting rotational entropy values for sn=1,12:

 non-linear molecules -----------------------------------
|  sn= 1 | S(rot)=       0.01831186 Eh     11.49 kcal/mol|
|  sn= 2 | S(rot)=       0.01732408 Eh     10.87 kcal/mol|
|  sn= 3 | S(rot)=       0.01674627 Eh     10.51 kcal/mol|
|  sn= 4 | S(rot)=       0.01633631 Eh     10.25 kcal/mol|
|  sn= 5 | S(rot)=       0.01601832 Eh     10.05 kcal/mol|
|  sn= 6 | S(rot)=       0.01575850 Eh      9.89 kcal/mol|
|  sn= 7 | S(rot)=       0.01553882 Eh      9.75 kcal/mol|
|  sn= 8 | S(rot)=       0.01534853 Eh      9.63 kcal/mol|
|  sn= 9 | S(rot)=       0.01518069 Eh      9.53 kcal/mol|
|  sn=10 | S(rot)=       0.01503054 Eh      9.43 kcal/mol|
|  sn=11 | S(rot)=       0.01489472 Eh      9.35 kcal/mol|
|  sn=12 | S(rot)=       0.01477072 Eh      9.27 kcal/mol|
 linear molecules ---------------------------------------
|  Dinfh | S(rot)=       0.01128309 Eh      7.08 kcal/mol|
|  Cinfv | S(rot)=       0.01227086 Eh      7.70 kcal/mol|
 --------------------------------------------------------


-------------------
GIBBS FREE ENERGY
-------------------

The Gibbs free energy is G = H - T*S

Total enthalpy                    ...   -157.06650731 Eh 
Total entropy correction          ...     -0.05772409 Eh    -36.22 kcal/mol
-----------------------------------------------------------------------
Final Gibbs free energy         ...   -157.12423140 Eh

For completeness - the Gibbs free energy minus the electronic energy
G-E(el)                           ...      0.06191419 Eh     38.85 kcal/mol


Maximum memory used throughout the entire PROP-calculation: 42.9 MB

--------------------------------
SUGGESTED CITATIONS FOR THIS RUN
--------------------------------

Below you find a list of papers that are relevant to this ORCA run
We neither can nor want to force you to cite these papers, but we appreciate if you do
You receive ORCA, which is the product of decades of hard work by many enthusiastic individuals, for free
The only thing we kindly ask in return is that you cite our papers,
We deeply appreciate it, if you show your appreciation for ORCA by not just citing the generic ORCA reference.

Please note that relegating all ORCA citations to the supporting information does *not* help us.
SI sections are not indexed - citations you put there will not count into any citation statistics
But we need these citations in order to attract the funding resources that allow us to do what we are doing

Therefore, if you are a happy ORCA user, please consider citing a few of the papers listed below in the main body of your paper

In addition to the list printed below, the program has created the file gem.bibtex that contains the list in bibtex format
You can import this file easily into all common literature databanks and citation aid programs


List of essential papers. We consider these as the minimum necessary citations

  1. Neese,F.
     Software update: the ORCA program system, version 5.0
     WIRES Comput. Molec. Sci., 2022 12(1)e1606
     doi.org/10.1002/wcms.1606

List of papers to cite with high priority. The work reported in these papers was absolutely
necessary for this run to complete.
Our perspective: the developers of density functionals and basis sets usually get cited in chemistry papers
Good! But without the algorithms to do something with them, the functionals or basis sets would not do anything.
Hence, in our opinion, the algorithm design and method developments papers are equally worthy of getting cited

  1. Neese,F.
     An improvement of the resolution of the identity approximation for the formation of the Coulomb matrix
     J. Comp. Chem., 2003 24(14)1740-1747
     doi.org/10.1002/jcc.10318
  2. Neese,F.; Wennmohs,F.; Hansen,A.; Becker,U.
     Efficient, approximate and parallel Hartree-Fock and hybrid DFT calculations. A 'chain-of-spheres' algorithm for the Hartree-Fock exchange
     Chem. Phys., 2009 356(1-3)98-109
     doi.org/10.1016/j.chemphys.2008.10.036
  3. Bykov,D.; Petrenko,T.; Izsak,R.; Kossmann,S.; Becker,U.; Valeev,E.; Neese,F.
     Efficient implementation of the analytic second derivatives of Hartree-Fock and hybrid DFT energies: a detailed analysis of different approximations
     Molec. Phys., 2015 113 1961-1977
     doi.org/10.1080/00268976.2015.1025114
  4. Helmich-Paris,B.; de Souza,B.; Neese,F.; Izsák,R.
     An improved chain of spheres for exchange algorithm
     J. Chem. Phys., 2021 155 104109
     doi.org/doi: 10.1063/5.0058766.
  5. Neese,F.
     The SHARK Integral Generation and Digestion System
     J. Comp. Chem., 2022  1-16
     doi.org/10.1002/jcc.26942
  6. Caldeweyher,E.; Bannwarth,C.; Grimme,S.
     Extension of the D3 dispersion coefficient model
     J. Chem. Phys., 2017 147 034112-XXXX
     doi.org/10.1063/1.4993215
  7. Caldeweyher,E.; Ehlert,S.; Hansen,A.; Neugebauer,H.; Spicher,S.; Bannwarth,C.; Grimme,S.
     A generally applicable atomic-charge dependent London dispersion correction
     J. Chem. Phys., 2019 150 154122-XXXX
     doi.org/10.1063/1.5090222
  8. Caldeweyher,E.; Mewes,J.; Ehlert,S.; Grimme,S.
     Extension and evaluation of the D4 London-dispersion model for periodic systems
     Phys. Chem. Chem. Phys., 2020 22(16)8499-8512
     doi.org/10.1039/D0CP00502A

List of suggested additional citations. These are papers that are important in the 'surrounding' of 
of this run, or papers that preceded the highly important papers. If you like your results we are grateful for a citation.

  1. Izsak,R.; Neese,F.
     An overlap fitted chain of spheres exchange method
     J. Chem. Phys., 2011 135 144105
     doi.org/10.1063/1.3646921
  2. Izsak,R.; Hansen,A.; Neese,F.
     The resolution of identity and chain of spheres approximations for the LPNO-CCSD singles Fock term
     Molec. Phys., 2012 110 2413-2417
     doi.org/10.1080/00268976.2012.687466
  3. Neese,F.
     The ORCA program system
     WIRES Comput. Molec. Sci., 2012 2(1)73-78
     doi.org/10.1002/wcms.81
  4. Izsak,R.; Neese,F.; Klopper,W.
     Robust fitting techniques in the chain of spheres approximation to the Fock exchange: The role of the complementary space
     J. Chem. Phys., 2013 139 
     doi.org/10.1063/1.4819264
  5. Neese,F.
     Software update: the ORCA program system, version 4.0
     WIRES Comput. Molec. Sci., 2018 8(1)1-6
     doi.org/10.1002/wcms.1327
  6. Neese,F.; Wennmohs,F.; Becker,U.; Riplinger,C.
     The ORCA quantum chemistry program package
     J. Chem. Phys., 2020 152 Art. No. L224108
     doi.org/10.1063/5.0004608

List of optional additional citations

  1. Neese,F.
     Approximate second-order SCF convergence for spin unrestricted wavefunctions
     Chem. Phys. Lett., 2000 325(1-3)93-98
     doi.org/10.1016/s0009-2614(00)00662-x

Timings for individual modules:

Sum of individual times          ...      426.540 sec (=   7.109 min)
Startup calculation              ...        5.559 sec (=   0.093 min)   1.3 %
SCF iterations                   ...       38.339 sec (=   0.639 min)   9.0 %
Property integrals               ...       65.807 sec (=   1.097 min)  15.4 %
SCF Response                     ...       39.279 sec (=   0.655 min)   9.2 %
Property calculations            ...      257.525 sec (=   4.292 min)  60.4 %
SCF Gradient evaluation          ...       20.006 sec (=   0.333 min)   4.7 %
Geometry relaxation              ...        0.025 sec (=   0.000 min)   0.0 %
                             ****ORCA TERMINATED NORMALLY****
TOTAL RUN TIME: 0 days 0 hours 7 minutes 8 seconds 566 msec
