
                                 *****************
                                 * O   R   C   A *
                                 *****************

                                            #,                                       
                                            ###                                      
                                            ####                                     
                                            #####                                    
                                            ######                                   
                                           ########,                                 
                                     ,,################,,,,,                         
                               ,,#################################,,                 
                          ,,##########################################,,             
                       ,#########################################, ''#####,          
                    ,#############################################,,   '####,        
                  ,##################################################,,,,####,       
                ,###########''''           ''''###############################       
              ,#####''   ,,,,##########,,,,          '''####'''          '####       
            ,##' ,,,,###########################,,,                        '##       
           ' ,,###''''                  '''############,,,                           
         ,,##''                                '''############,,,,        ,,,,,,###''
      ,#''                                            '''#######################'''  
     '                                                          ''''####''''         
             ,#######,   #######,   ,#######,      ##                                
            ,#'     '#,  ##    ##  ,#'     '#,    #''#        ,####,   ,####,        
            ##       ##  ##   ,#'  ##            #'  '#       #'       #'  '#        
            ##       ##  #######   ##           ,######,      #####,   #    #        
            '#,     ,#'  ##    ##  '#,     ,#' ,#      #,     #,   #   #,  ,#        
             '#######'   ##     ##  '#######'  #'      '#     '####' # '####'        



                #########################################################
                #                        -***-                          #
                #          Department of theory and spectroscopy        #
                #                                                       #
                #                      Frank Neese                      #
                #                                                       #
                #     Directorship, Architecture, Infrastructure        #
                #                    SHARK, DRIVERS                     #
                #        Core code/Algorithms in most modules           #
                #                                                       #
                #        Max Planck Institute fuer Kohlenforschung      #
                #                Kaiser Wilhelm Platz 1                 #
                #                 D-45470 Muelheim/Ruhr                 #
                #                      Germany                          #
                #                                                       #
                #                  All rights reserved                  #
                #                        -***-                          #
                #########################################################


                         Program Version 6.0.0  -   RELEASE  -


 With contributions from (in alphabetic order):
   Daniel Aravena         : Magnetic Suceptibility
   Michael Atanasov       : Ab Initio Ligand Field Theory (pilot matlab implementation)
   Alexander A. Auer      : GIAO ZORA, VPT2 properties, NMR spectrum
   Ute Becker             : All parallelization in ORCA, NUMFREQ, NUMCALC
   Giovanni Bistoni       : ED, misc. LED, open-shell LED, HFLD
   Martin Brehm           : Molecular dynamics
   Dmytro Bykov           : pre 5.0 version of the SCF Hessian
   Marcos Casanova-Páez   : Triplet and SCS-CIS(D). UHF-(DLPNO)-IP/EA/STEOM-CCSD. UHF-CVS-IP/STEOM-CCSD
   Vijay G. Chilkuri      : MRCI spin determinant printing, contributions to CSF-ICE
   Pauline Colinet        : FMM embedding
   Dipayan Datta          : RHF DLPNO-CCSD density
   Achintya Kumar Dutta   : EOM-CC, STEOM-CC
   Nicolas Foglia         : Exact transition moments, OPA infrastructure, MCD improvements
   Dmitry Ganyushin       : Spin-Orbit,Spin-Spin,Magnetic field MRCI
   Miquel Garcia          : C-PCM and meta-GGA Hessian, CCSD/C-PCM, Gaussian charge scheme
   Tiago L. C. Gouveia    : GS-ROHF, GS-ROCIS
   Yang Guo               : DLPNO-NEVPT2, F12-NEVPT2, CIM, IAO-localization
   Andreas Hansen         : Spin unrestricted coupled pair/coupled cluster methods
   Ingolf Harden          : AUTO-CI MPn and infrastructure 
   Benjamin Helmich-Paris : MC-RPA, TRAH-(SCF,CASSCF), AVAS, COSX integrals, SCF dyn. polar.
   Lee Huntington         : MR-EOM, pCC
   Robert Izsak           : Overlap fitted RIJCOSX, COSX-SCS-MP3, EOM
   Riya Kayal             : Wick's Theorem for AUTO-CI, AUTO-CI UHF-CCSDT
   Emily Kempfer          : AUTO-CI, RHF CISDT and CCSDT
   Christian Kollmar      : KDIIS, OOCD, Brueckner-CCSD(T), CCSD density, CASPT2, CASPT2-K, improved NEVPT2
   Axel Koslowski         : Symmetry handling
   Simone Kossmann        : Meta GGA functionals, TD-DFT gradient, OOMP2, (MP2 Hessian; deprecated post 5.0)
   Lucas Lang             : DCDCAS
   Marvin Lechner         : AUTO-CI (C++ implementation), FIC-MRCC
   Spencer Leger          : CASSCF response
   Dagmar Lenk            : GEPOL surface, SMD, ORCA-2-JSON
   Dimitrios Liakos       : Extrapolation schemes; Compound Job, initial MDCI parallelization
   Dimitrios Manganas     : Further ROCIS development; embedding schemes. LFT, Crystal Embedding
   Dimitrios Pantazis     : SARC Basis sets
   Anastasios Papadopoulos: AUTO-CI, single reference methods and gradients
   Taras Petrenko         : pre 6.0 DFT Hessian and TD-DFT gradient, (ASA, deprecated), ECA, 1-Electron XAS/XES, NRVS
   Peter Pinski           : DLPNO-MP2, DLPNO-MP2 Gradient
   Christoph Reimann      : Effective Core Potentials
   Marius Retegan         : Local ZFS, SOC
   Christoph Riplinger    : Optimizer, TS searches, QM/MM, DLPNO-CCSD(T), (RO)-DLPNO pert. Triples
   Michael Roemelt        : Original ROCIS implementation
   Masaaki Saitow         : Open-shell DLPNO-CCSD energy and density
   Barbara Sandhoefer     : DKH picture change effects
   Kantharuban Sivalingam : CASSCF convergence/infrastructure, NEVPT2 and variants, FIC-MRCI
   Bernardo de Souza      : ESD, SOC TD-DFT
   Georgi Stoychev        : AutoAux, RI-MP2 NMR, DLPNO-MP2 response, X2C
   Van Anh Tran           : RI-MP2 g-tensors
   Willem Van den Heuvel  : Paramagnetic NMR
   Zikuan Wang            : NOTCH, Electric field optimization 
   Frank Wennmohs         : Technical directorship and infrastructure
   Hang Xu                : AUTO-CI-Response properties 


 We gratefully acknowledge several colleagues who have allowed us to
 interface, adapt or use parts of their codes:
   Stefan Grimme, W. Hujo, H. Kruse, P. Pracht,  : VdW corrections, initial TS optimization,
                  C. Bannwarth, S. Ehlert,         DFT functionals, gCP, sTDA/sTD-DF
                  L. Wittmann, M. Mueller
   Ed Valeev, F. Pavosevic, A. Kumar             : LibInt (2-el integral package), F12 methods
   Garnet Chan, S. Sharma, J. Yang, R. Olivares  : DMRG
   Ulf Ekstrom                                   : XCFun DFT Library
   Mihaly Kallay                                 : mrcc  (arbitrary order and MRCC methods)
   Frank Weinhold                                : gennbo (NPA and NBO analysis)
   Simon Mueller                                 : openCOSMO-RS
   Christopher J. Cramer and Donald G. Truhlar   : smd solvation model
   Lars Goerigk                                  : TD-DFT with DH, B97 family of functionals
   V. Asgeirsson, H. Jonsson                     : NEB implementation
   FAccTs GmbH                                   : IRC, NEB, NEB-TS, DLPNO-Multilevel, CI-OPT
                                                   MM, QMMM, 2- and 3-layer-ONIOM, Crystal-QMMM,
                                                   LR-CPCM, SF, NACMEs, symmetry and pop. for TD-DFT,
                                                   nearIR, NL-DFT gradient (VV10), updates on ESD,
                                                   ML-optimized integration grids, MBIS, APM,
                                                   GOAT, DOCKER, SOLVATOR, interface openCOSMO-RS
   S Lehtola, MJT Oliveira, MAL Marques          : LibXC Library
   Liviu Ungur et al                             : ANISO software


 Your calculation uses the libint2 library for the computation of 2-el integrals
 For citations please refer to: http://libint.valeyev.net

 Your ORCA version has been built with support for libXC version: 6.2.2
 For citations please refer to: https://libxc.gitlab.io

 This ORCA versions uses:
   CBLAS   interface :  Fast vector & matrix operations
   LAPACKE interface :  Fast linear algebra routines
   SCALAPACK package :  Parallel linear algebra routines
   Shared memory     :  Shared parallel matrices
   BLAS/LAPACK       :  OpenBLAS 0.3.27  USE64BITINT DYNAMIC_ARCH NO_AFFINITY Prescott SINGLE_THREADED
        Core in use  :  Prescott
   Copyright (c) 2011-2014, The OpenBLAS Project


NOTE: MaxCore=1800 MB was set to SCF,MP2,MDCI,CIPSI,MRCI and CIS
      => If you want to overwrite this, your respective input block should be placed after the MaxCore statement


***************************************
The coordinates will be read from file: trans.xyz
***************************************


Your calculation utilizes the atom-pairwise dispersion correction
based on EEQ partial charges (D4)


Warning: RI is on but no J-basis has been assigned. Assigning Def2/J (nothing to worry about!)
================================================================================

----- Orbital basis set information -----
Your calculation utilizes the basis: def2-TZVP
   F. Weigend and R. Ahlrichs, Phys. Chem. Chem. Phys. 7, 3297 (2005).

----- AuxJ basis set information -----
Your calculation utilizes the auxiliary basis: def2/J
   F. Weigend, Phys. Chem. Chem. Phys. 8, 1057 (2006).

================================================================================
                                        WARNINGS
                       Please study these warnings very carefully!
================================================================================


WARNING: Geometry Optimization
  ===> : Switching off AutoStart
         For restart on a previous wavefunction, please use MOREAD

================================================================================
                                       INPUT FILE
================================================================================
NAME = trans.inp
|  1> !B3LYP D4 DEF2-TZVP OPT FREQ PAL4
|  2> %maxcore 1800
|  3> 
|  4> * XYZFILE 0 1 trans.xyz
|  5> 
|  6>                          ****END OF INPUT****
================================================================================

                       *****************************
                       * Geometry Optimization Run *
                       *****************************

Geometry optimization settings:
Update method            Update   .... BFGS
Choice of coordinates    CoordSys .... (2022) Redundant Internals
Initial Hessian          InHess   .... Almloef's Model
Max. no of cycles        MaxIter  .... 50

Convergence Tolerances:
Energy Change            TolE     ....  5.0000e-06 Eh
Max. Gradient            TolMAXG  ....  3.0000e-04 Eh/bohr
RMS Gradient             TolRMSG  ....  1.0000e-04 Eh/bohr
Max. Displacement        TolMAXD  ....  4.0000e-03 bohr
RMS Displacement         TolRMSD  ....  2.0000e-03 bohr
Strict Convergence                .... False

------------------------------------------------------------------------------
                        ORCA OPTIMIZATION COORDINATE SETUP
------------------------------------------------------------------------------

The optimization will be done in redundant internal coordinates (2022)
Making redundant internal coordinates   ...  (2022 redundants) done
Evaluating the initial hessian          ...  (Almloef) done
Evaluating the coordinates              ...  done
Calculating the B-matrix                .... done
Calculating the G-matrix                .... done
Diagonalizing the G-matrix              .... done
The first mode is                       ....   13
The number of degrees of freedom        ....   30

    -----------------------------------------------------------------
                    Redundant Internal Coordinates


    -----------------------------------------------------------------
         Definition                    Initial Value    Approx d2E/dq
    -----------------------------------------------------------------
      1. B(C   1,C   0)                  1.4968         0.422023   
      2. B(H   2,C   0)                  1.0945         0.354213   
      3. B(H   3,C   0)                  1.0915         0.358116   
      4. B(H   4,C   0)                  1.0945         0.354207   
      5. B(C   5,C   1)                  1.3287         0.782667   
      6. B(C   6,C   5)                  1.4968         0.422013   
      7. B(H   7,C   6)                  1.0945         0.354209   
      8. B(H   8,C   6)                  1.0945         0.354203   
      9. B(H   9,C   6)                  1.0915         0.358115   
     10. B(H  10,C   1)                  1.0887         0.361787   
     11. B(H  11,C   5)                  1.0887         0.361782   
     12. A(H   2,C   0,H   4)          106.5867         0.289338   
     13. A(H   3,C   0,H   4)          108.0905         0.289836   
     14. A(C   1,C   0,H   2)          111.2111         0.330003   
     15. A(C   1,C   0,H   4)          111.2182         0.330002   
     16. A(C   1,C   0,H   3)          111.4489         0.330602   
     17. A(H   2,C   0,H   3)          108.0839         0.289837   
     18. A(C   0,C   1,H  10)          116.1759         0.331160   
     19. A(C   0,C   1,C   5)          125.2562         0.422421   
     20. A(C   5,C   1,H  10)          118.5679         0.367494   
     21. A(C   6,C   5,H  11)          116.1752         0.331158   
     22. A(C   1,C   5,H  11)          118.5682         0.367493   
     23. A(C   1,C   5,C   6)          125.2565         0.422419   
     24. A(H   8,C   6,H   9)          108.0906         0.289835   
     25. A(H   7,C   6,H   9)          108.0840         0.289836   
     26. A(C   5,C   6,H   9)          111.4485         0.330600   
     27. A(H   7,C   6,H   8)          106.5868         0.289337   
     28. A(C   5,C   6,H   8)          111.2185         0.330000   
     29. A(C   5,C   6,H   7)          111.2108         0.330001   
     30. D(H  10,C   1,C   0,H   2)    -59.3034         0.013166   
     31. D(C   5,C   1,C   0,H   4)   -120.6747         0.013166   
     32. D(H  10,C   1,C   0,H   3)   -179.9818         0.013166   
     33. D(C   5,C   1,C   0,H   2)    120.6952         0.013166   
     34. D(C   5,C   1,C   0,H   3)      0.0169         0.013166   
     35. D(C   6,C   5,C   1,C   0)   -179.9990         0.044061   
     36. D(H  11,C   5,C   1,H  10)    180.0000         0.044061   
     37. D(H  11,C   5,C   1,C   0)      0.0013         0.044061   
     38. D(C   6,C   5,C   1,H  10)     -0.0004         0.044061   
     39. D(H   9,C   6,C   5,C   1)     -0.0242         0.013166   
     40. D(H   8,C   6,C   5,H  11)    -59.3329         0.013166   
     41. D(H   8,C   6,C   5,C   1)    120.6675         0.013166   
     42. D(H   7,C   6,C   5,H  11)     59.2974         0.013166   
     43. D(H   7,C   6,C   5,C   1)   -120.7022         0.013166   
    -----------------------------------------------------------------

Number of atoms                         .... 12
Number of degrees of freedom            .... 43


         *************************************************************
         *                GEOMETRY OPTIMIZATION CYCLE   1            *
         *************************************************************
---------------------------------
CARTESIAN COORDINATES (ANGSTROEM)
---------------------------------
  C      1.310058    0.514529    0.058043
  C     -0.048193   -0.092532    0.222542
  H      1.795397    0.667571    1.027025
  H      1.257306    1.478863   -0.450541
  H      1.968824   -0.139753   -0.521486
  C     -1.187265    0.453272   -0.189760
  C     -2.545527   -0.153775   -0.025245
  H     -3.030919   -0.306710   -0.994221
  H     -3.204252    0.500463    0.554387
  H     -2.492764   -1.118162    0.483238
  H     -0.084962   -1.058952    0.722551
  H     -1.150501    1.419696   -0.689771

----------------------------
CARTESIAN COORDINATES (A.U.)
----------------------------
  NO LB      ZA    FRAG     MASS         X           Y           Z
   0 C     6.0000    0    12.011    2.475650    0.972319    0.109685
   1 C     6.0000    0    12.011   -0.091072   -0.174860    0.420544
   2 H     1.0000    0     1.008    3.392808    1.261527    1.940795
   3 H     1.0000    0     1.008    2.375964    2.794645   -0.851400
   4 H     1.0000    0     1.008    3.720538   -0.264095   -0.985467
   5 C     6.0000    0    12.011   -2.243605    0.856560   -0.358595
   6 C     6.0000    0    12.011   -4.810350   -0.290592   -0.047707
   7 H     1.0000    0     1.008   -5.727608   -0.579598   -1.878805
   8 H     1.0000    0     1.008   -6.055160    0.945738    1.047639
   9 H     1.0000    0     1.008   -4.710642   -2.113019    0.913187
  10 H     1.0000    0     1.008   -0.160554   -2.001130    1.365424
  11 H     1.0000    0     1.008   -2.174132    2.682836   -1.303478

--------------------------------
INTERNAL COORDINATES (ANGSTROEM)
--------------------------------
 C      0   0   0     0.000000000000     0.00000000     0.00000000
 C      1   0   0     1.496806056132     0.00000000     0.00000000
 H      1   2   0     1.094487057070   111.21105880     0.00000000
 H      1   2   3     1.091503603865   111.44885172   239.32164468
 H      1   2   3     1.094491396951   111.21819371   118.63007709
 C      2   1   3     1.328676021817   125.25619699   120.69523454
 C      6   2   1     1.496812716457   125.25654116   180.00097850
 H      7   6   2     1.094490005448   111.21080313   239.29777232
 H      7   6   2     1.094494818741   111.21852726   120.66749462
 H      7   6   2     1.091504412668   111.44849590   359.97579342
 H      2   1   3     1.088727872070   116.17585456   300.69655839
 H      6   2   1     1.088731454941   118.56821638     0.00000000

---------------------------
INTERNAL COORDINATES (A.U.)
---------------------------
 C      0   0   0     0.000000000000     0.00000000     0.00000000
 C      1   0   0     2.828553521684     0.00000000     0.00000000
 H      1   2   0     2.068280794984   111.21105880     0.00000000
 H      1   2   3     2.062642885493   111.44885172   239.32164468
 H      1   2   3     2.068288996170   111.21819371   118.63007709
 C      2   1   3     2.510833801942   125.25619699   120.69523454
 C      6   2   1     2.828566107875   125.25654116   180.00097850
 H      7   6   2     2.068286366610   111.21080313   239.29777232
 H      7   6   2     2.068295462417   111.21852726   120.66749462
 H      7   6   2     2.062644413910   111.44849590   359.97579342
 H      2   1   3     2.057397512579   116.17585456   300.69655839
 H      6   2   1     2.057404283224   118.56821638     0.00000000

---------------------
BASIS SET INFORMATION
---------------------
There are 2 groups of distinct atoms

 Group   1 Type C   : 11s6p2d1f contracted to 5s3p2d1f pattern {62111/411/11/1}
 Group   2 Type H   : 5s1p contracted to 3s1p pattern {311/1}

Atom   0C    basis set group =>   1
Atom   1C    basis set group =>   1
Atom   2H    basis set group =>   2
Atom   3H    basis set group =>   2
Atom   4H    basis set group =>   2
Atom   5C    basis set group =>   1
Atom   6C    basis set group =>   1
Atom   7H    basis set group =>   2
Atom   8H    basis set group =>   2
Atom   9H    basis set group =>   2
Atom  10H    basis set group =>   2
Atom  11H    basis set group =>   2
---------------------------------
AUXILIARY/J BASIS SET INFORMATION
---------------------------------
There are 2 groups of distinct atoms

 Group   1 Type C   : 12s5p4d2f1g contracted to 6s4p3d1f1g pattern {711111/2111/211/2/1}
 Group   2 Type H   : 5s2p1d contracted to 3s1p1d pattern {311/2/1}

Atom   0C    basis set group =>   1
Atom   1C    basis set group =>   1
Atom   2H    basis set group =>   2
Atom   3H    basis set group =>   2
Atom   4H    basis set group =>   2
Atom   5C    basis set group =>   1
Atom   6C    basis set group =>   1
Atom   7H    basis set group =>   2
Atom   8H    basis set group =>   2
Atom   9H    basis set group =>   2
Atom  10H    basis set group =>   2
Atom  11H    basis set group =>   2


           ************************************************************
           *        Program running with 4 parallel MPI-processes     *
           *              working on a common directory               *
           ************************************************************
------------------------------------------------------------------------------
                             ORCA STARTUP CALCULATIONS
                           -- RI-GTO INTEGRALS CHOSEN --
------------------------------------------------------------------------------
------------------------------------------------------------------------------
                   ___                                                        
                  /   \      - P O W E R E D   B Y -                         
                 /     \                                                     
                 |  |  |   _    _      __       _____    __    __             
                 |  |  |  | |  | |    /  \     |  _  \  |  |  /  |          
                  \  \/   | |  | |   /    \    | | | |  |  | /  /          
                 / \  \   | |__| |  /  /\  \   | |_| |  |  |/  /          
                |  |  |   |  __  | /  /__\  \  |    /   |      \           
                |  |  |   | |  | | |   __   |  |    \   |  |\   \          
                \     /   | |  | | |  |  |  |  | |\  \  |  | \   \       
                 \___/    |_|  |_| |__|  |__|  |_| \__\ |__|  \__/        
                                                                              
                      - O R C A' S   B I G   F R I E N D -                    
                                      &                                       
                       - I N T E G R A L  F E E D E R -                       
                                                                              
 v1 FN, 2020, v2 2021, v3 2022-2024                                           
------------------------------------------------------------------------------


----------------------
SHARK INTEGRAL PACKAGE
----------------------

Number of atoms                             ...     12
Number of basis functions                   ...    172
Number of shells                            ...     76
Maximum angular momentum                    ...      3
Integral batch strategy                     ... SHARK/LIBINT Hybrid
RI-J (if used) integral strategy            ... SPLIT-RIJ (Revised 2003 algorithm where possible)
Printlevel                                  ...      1
Contraction scheme used                     ... SEGMENTED contraction
Prescreening option                         ... SCHWARTZ
   Thresh                                   ... 2.500e-11
   Tcut                                     ... 2.500e-12
   Tpresel                                  ... 2.500e-12 
Coulomb Range Separation                    ... NOT USED
Exchange Range Separation                   ... NOT USED
Multipole approximations                    ... NOT USED
Finite Nucleus Model                        ... NOT USED
CABS basis                                  ... NOT available
Auxiliary Coulomb fitting basis             ... AVAILABLE
   # of basis functions in Aux-J            ...    284
   # of shells in Aux-J                     ...    100
   Maximum angular momentum in Aux-J        ...      4
Auxiliary J/K fitting basis                 ... NOT available
Auxiliary Correlation fitting basis         ... NOT available
Auxiliary 'external' fitting basis          ... NOT available

Checking pre-screening integrals            ... done (  0.0 sec) Dimension = 76
Check shell pair data                       ... done (  0.0 sec)
Shell pair information
Shell pair cut-off parameter TPreSel        ...   2.5e-12
Total number of shell pairs                 ...      2926
Shell pairs after pre-screening             ...      2795
Total number of primitive shell pairs       ...      8368
Primitive shell pairs kept                  ...      6528
          la=0 lb=0:    934 shell pairs
          la=1 lb=0:    836 shell pairs
          la=1 lb=1:    201 shell pairs
          la=2 lb=0:    342 shell pairs
          la=2 lb=1:    156 shell pairs
          la=2 lb=2:     36 shell pairs
          la=3 lb=0:    168 shell pairs
          la=3 lb=1:     80 shell pairs
          la=3 lb=2:     32 shell pairs
          la=3 lb=3:     10 shell pairs

Calculating one electron integrals          ... done (  0.0 sec)
Calculating RI/J V-Matrix + Cholesky decomp.... done (  0.0 sec)
Calculating Nuclear repulsion               ... done (  0.0 sec) ENN=    116.006139654255 Eh

Diagonalization of the overlap matrix:
Smallest eigenvalue                        ... 1.392e-04
Time for diagonalization                   ...    0.012 sec
Threshold for overlap eigenvalues          ... 1.000e-07
Number of eigenvalues below threshold      ... 0
Time for construction of square roots      ...    0.010 sec
Total time needed                          ...    0.036 sec

-------------------
DFT GRID GENERATION
-------------------

General Integration Accuracy     IntAcc      ... 4.388
Radial Grid Type                 RadialGrid  ... OptM3 with GC (2021)
Angular Grid (max. ang.)         AngularGrid ... 4 (Lebedev-302)
Angular grid pruning method      GridPruning ... 4 (adaptive)
Weight generation scheme         WeightScheme... mBecke (2022)
Basis function cutoff            BFCut       ... 1.0000e-11
Integration weight cutoff        WCut        ... 1.0000e-14
Partially contracted basis set               ... off
Rotationally invariant grid construction     ... off
Angular grids for H and He will be reduced by one unit

Total number of grid points                  ...    50160
Total number of batches                      ...      787
Average number of points per batch           ...       63
Average number of grid points per atom       ...     4180

--------------------
COSX GRID GENERATION
--------------------

GRIDX 1
-------
General Integration Accuracy     IntAcc      ... 3.816
Radial Grid Type                 RadialGrid  ... OptM3 with GC (2021)
Angular Grid (max. ang.)         AngularGrid ... 1 (Lebedev-50)
Angular grid pruning method      GridPruning ... 4 (adaptive)
Weight generation scheme         WeightScheme... mBecke (2022)
Basis function cutoff            BFCut       ... 1.0000e-11
Integration weight cutoff        WCut        ... 1.0000e-14
Partially contracted basis set               ... on
Rotationally invariant grid construction     ... off
Angular grids for H and He will be reduced by one unit

Total number of grid points                  ...     6480
Total number of batches                      ...       58
Average number of points per batch           ...      111
Average number of grid points per atom       ...      540
UseSFitting                                  ... on

GRIDX 2
-------
General Integration Accuracy     IntAcc      ... 4.020
Radial Grid Type                 RadialGrid  ... OptM3 with GC (2021)
Angular Grid (max. ang.)         AngularGrid ... 2 (Lebedev-110)
Angular grid pruning method      GridPruning ... 4 (adaptive)
Weight generation scheme         WeightScheme... mBecke (2022)
Basis function cutoff            BFCut       ... 1.0000e-11
Integration weight cutoff        WCut        ... 1.0000e-14
Partially contracted basis set               ... on
Rotationally invariant grid construction     ... off
Angular grids for H and He will be reduced by one unit

Total number of grid points                  ...    13514
Total number of batches                      ...      110
Average number of points per batch           ...      122
Average number of grid points per atom       ...     1126
UseSFitting                                  ... on

GRIDX 3
-------
General Integration Accuracy     IntAcc      ... 4.338
Radial Grid Type                 RadialGrid  ... OptM3 with GC (2021)
Angular Grid (max. ang.)         AngularGrid ... 3 (Lebedev-194)
Angular grid pruning method      GridPruning ... 4 (adaptive)
Weight generation scheme         WeightScheme... mBecke (2022)
Basis function cutoff            BFCut       ... 1.0000e-11
Integration weight cutoff        WCut        ... 1.0000e-14
Partially contracted basis set               ... on
Rotationally invariant grid construction     ... off
Angular grids for H and He will be reduced by one unit

Total number of grid points                  ...    29612
Total number of batches                      ...      236
Average number of points per batch           ...      125
Average number of grid points per atom       ...     2468
UseSFitting                                  ... on
Initializing property integral containers    ... done (  0.0 sec)

SHARK setup successfully completed in   2.1 seconds

Maximum memory used throughout the entire STARTUP-calculation: 16.6 MB


           ************************************************************
           *        Program running with 4 parallel MPI-processes     *
           *              working on a common directory               *
           ************************************************************
-------------------------------------------------------------------------------
                                 ORCA GUESS
                   Start orbitals & Density for SCF / CASSCF
-------------------------------------------------------------------------------

------------
SCF SETTINGS
------------
Hamiltonian:
 Density Functional     Method          .... DFT(GTOs)
 Exchange Functional    Exchange        .... B88
   X-Alpha parameter    XAlpha          ....  0.666667
   Becke's b parameter  XBeta           ....  0.004200
 Correlation Functional Correlation     .... LYP
 LDA part of GGA corr.  LDAOpt          .... VWN-5
 Gradients option       PostSCFGGA      .... off
 Hybrid DFT is turned on
   Fraction HF Exchange ScalHFX         ....  0.200000
   Scaling of DF-GGA-X  ScalDFX         ....  0.720000
   Scaling of DF-GGA-C  ScalDFC         ....  0.810000
   Scaling of DF-LDA-C  ScalLDAC        ....  1.000000
   Perturbative correction              ....  0.000000
   NL short-range parameter             ....  4.800000
 RI-approximation to the Coulomb term is turned on
   Number of AuxJ basis functions       .... 284
   RIJ-COSX (HFX calculated with COS-X)).... on


General Settings:
 Integral files         IntName         .... trans
 Hartree-Fock type      HFTyp           .... RHF
 Total Charge           Charge          ....    0
 Multiplicity           Mult            ....    1
 Number of Electrons    NEL             ....   32
 Basis Dimension        Dim             ....  172
 Nuclear Repulsion      ENuc            ....    116.0061396543 Eh

Convergence Acceleration:
 AO-DIIS                CNVDIIS         .... on
   Start iteration      DIISMaxIt       ....    12
   Startup error        DIISStart       ....  0.200000
   # of expansion vecs  DIISMaxEq       ....     5
   Bias factor          DIISBfac        ....   1.050
   Max. coefficient     DIISMaxC        ....  10.000
 MO-DIIS                CNVKDIIS        .... off
 Trust-Rad. Augm. Hess. CNVTRAH         .... auto
   Auto Start mean grad. ratio tolernc. ....  1.125000
   Auto Start start iteration           ....    50
   Auto Start num. interpolation iter.  ....    10
   Max. Number of Micro iterations      ....    24
   Max. Number of Macro iterations      .... Maxiter - #DIIS iter
   Number of Davidson start vectors     ....     2
   Converg. threshold    (grad. norm)   ....   1.000e-05
   Grad. Scal. Fac. for Micro threshold ....   0.100
   Minimum threshold for Micro iter.    ....   1.000e-02
   NR start threshold (gradient norm)   ....   1.000e-04
   Initial trust radius                 ....   0.400
   Minimum AH scaling param. (alpha)    ....   1.000
   Maximum AH scaling param. (alpha)    .... 1000.000
   Quad. conv. algorithm                .... NR
   White noise on init. David. guess    .... on
   Maximum white noise                  ....   0.010
   Pseudo random numbers                .... off
   Inactive MOs                         .... canonical
   Orbital update algorithm             .... Taylor
   Preconditioner                       .... Diag
   Full preconditioner red. dimension   ....   250
 SOSCF                  CNVSOSCF        .... on
   Start iteration      SOSCFMaxIt      ....   150
   Startup grad/error   SOSCFStart      ....  0.003300
   Hessian update       SOSCFHessUp     .... L-BFGS
 Level Shifting         CNVShift        .... on
   Level shift para.    LevelShift      ....    0.2500
   Turn off err/grad.   ShiftErr        ....    0.0010
 Zerner damping         CNVZerner       .... off
 Static damping         CNVDamp         .... on
   Fraction old density DampFac         ....    0.7000
   Max. Damping (<1)    DampMax         ....    0.9800
   Min. Damping (>=0)   DampMin         ....    0.0000
   Turn off err/grad.   DampErr         ....    0.1000

SCF Procedure:
 Maximum # iterations   MaxIter         ....   125
 SCF integral mode      SCFMode         .... Direct
   Integral package                     .... SHARK and LIBINT hybrid scheme
 Reset frequency        DirectResetFreq ....    20
 Integral Threshold     Thresh          ....  2.500e-11 Eh
 Primitive CutOff       TCut            ....  2.500e-12 Eh

Convergence Tolerance:
 Convergence Check Mode ConvCheckMode   .... Total+1el-Energy
 Convergence forced     ConvForced      .... 0
 Energy Change          TolE            ....  1.000e-08 Eh
 1-El. energy change                    ....  1.000e-05 Eh
 Orbital Gradient       TolG            ....  1.000e-05
 Orbital Rotation angle TolX            ....  1.000e-05
 DIIS Error             TolErr          ....  5.000e-07

------------------------------
INITIAL GUESS: MODEL POTENTIAL
------------------------------
Loading Hartree-Fock densities                     ... done
Calculating cut-offs                               ... done
Initializing the effective Hamiltonian             ... done
Setting up the integral package (SHARK)            ... done
Starting the Coulomb interaction                   ... done (   0.1 sec)
Making the grid                                    ... done (   0.2 sec)
Mapping shells                                     ... done
Starting the XC term evaluation                    ... done (   0.1 sec)
  promolecular density results
     # of electrons  =     31.995003027
     EX              =    -22.913863897
     EC              =     -1.005100828
     EX+EC           =    -23.918964725
Transforming the Hamiltonian                       ... done (   0.0 sec)
Diagonalizing the Hamiltonian                      ... done (   0.0 sec)
Back transforming the eigenvectors                 ... done (   0.0 sec)
Now organizing SCF variables                       ... done
                      ------------------
                      INITIAL GUESS DONE (   0.4 sec)
                      ------------------
             **** ENERGY FILE WAS UPDATED (trans.en.tmp) ****
Finished Guess after   1.0 sec
Maximum memory used throughout the entire GUESS-calculation: 10.9 MB


           ************************************************************
           *        Program running with 4 parallel MPI-processes     *
           *              working on a common directory               *
           ************************************************************

-------------------------------------------------------------------------------------------
                                      ORCA LEAN-SCF
                              memory conserving SCF solver
-------------------------------------------------------------------------------------------

----------------------------------------D-I-I-S--------------------------------------------
Iteration    Energy (Eh)           Delta-E    RMSDP     MaxDP     DIISErr   Damp  Time(sec)
-------------------------------------------------------------------------------------------
               ***  Starting incremental Fock matrix formation  ***
    1    -156.9951224236396001     0.00e+00  1.66e-03  3.75e-02  1.96e-01  0.700   2.4
    2    -157.0779939138528221    -8.29e-02  1.25e-03  2.32e-02  1.03e-01  0.700   1.6
                               ***Turning on AO-DIIS***
    3    -157.1124653869719054    -3.45e-02  5.23e-04  7.70e-03  3.97e-02  0.700   1.6
    4    -157.1319495289561701    -1.95e-02  8.20e-04  1.12e-02  1.94e-02  0.000   1.6
    5    -157.1739442744471944    -4.20e-02  2.21e-04  3.83e-03  7.21e-03  0.000   1.5
                              *** Initializing SOSCF ***
---------------------------------------S-O-S-C-F--------------------------------------
Iteration    Energy (Eh)           Delta-E    RMSDP     MaxDP     MaxGrad    Time(sec)
--------------------------------------------------------------------------------------
    6    -157.1742243507197827    -2.80e-04  1.05e-04  2.28e-03  1.49e-03     1.6
               *** Restarting incremental Fock matrix formation ***
    7    -157.1742474936615963    -2.31e-05  7.34e-05  1.69e-03  2.28e-04     2.4
    8    -157.1742481085375402    -6.15e-07  1.14e-05  2.10e-04  1.78e-04     2.0
    9    -157.1742489285399529    -8.20e-07  5.99e-06  1.33e-04  2.56e-05     1.9
   10    -157.1742489430596947    -1.45e-08  9.00e-07  1.70e-05  5.55e-06     1.8
   11    -157.1742489451078768    -2.05e-09  2.69e-07  5.62e-06  2.42e-06     1.7
                 **** Energy Check signals convergence ****

               *****************************************************
               *                     SUCCESS                       *
               *           SCF CONVERGED AFTER  11 CYCLES          *
               *****************************************************

Recomputing exchange energy using gridx3       ... done (    3.397 sec)
Old exchange energy                            :     -4.712747514 Eh
New exchange energy                            :     -4.712750052 Eh
Exchange energy change after final integration :     -0.000002538 Eh
Total energy after final integration           :   -157.174251483 Eh
             **** ENERGY FILE WAS UPDATED (trans.en.tmp) ****

----------------
TOTAL SCF ENERGY
----------------

Total Energy       :       -157.17425148327536 Eh           -4276.92882 eV

Components:
Nuclear Repulsion  :        116.00613965425525 Eh            3156.68754 eV
Electronic Energy  :       -273.18038859936314 Eh           -7433.61629 eV
One Electron Energy:       -439.36321731351563 Eh          -11955.68096 eV
Two Electron Energy:        166.18282871415249 Eh            4522.06467 eV

Virial components:
Potential Energy   :       -313.55372620420167 Eh           -8532.23066 eV
Kinetic Energy     :        156.37947472092631 Eh            4255.30184 eV
Virial Ratio       :          2.00508235984145

DFT components:
N(Alpha)           :       15.999975845494 electrons
N(Beta)            :       15.999975845494 electrons
N(Total)           :       31.999951690988 electrons
E(X)               :      -18.682264060259 Eh       
E(C)               :       -1.200738745597 Eh       
E(XC)              :      -19.883002805856 Eh       

---------------
SCF CONVERGENCE
---------------

  Last Energy change         ...    2.0482e-09  Tolerance :   1.0000e-08
  Last MAX-Density change    ...    5.6178e-06  Tolerance :   1.0000e-07
  Last RMS-Density change    ...    2.6877e-07  Tolerance :   5.0000e-09
  Last DIIS Error            ...    1.4927e-03  Tolerance :   5.0000e-07
  Last Orbital Gradient      ...    2.4164e-06  Tolerance :   1.0000e-05
  Last Orbital Rotation      ...    2.9280e-06  Tolerance :   1.0000e-05


----------------
ORBITAL ENERGIES
----------------

  NO   OCC          E(Eh)            E(eV) 
   0   2.0000     -10.162375      -276.5323 
   1   2.0000     -10.161485      -276.5081 
   2   2.0000     -10.160325      -276.4765 
   3   2.0000     -10.160319      -276.4763 
   4   2.0000      -0.795374       -21.6432 
   5   2.0000      -0.725572       -19.7438 
   6   2.0000      -0.640821       -17.4376 
   7   2.0000      -0.543919       -14.8008 
   8   2.0000      -0.442575       -12.0431 
   9   2.0000      -0.440016       -11.9734 
  10   2.0000      -0.414786       -11.2869 
  11   2.0000      -0.400665       -10.9027 
  12   2.0000      -0.372017       -10.1231 
  13   2.0000      -0.360474        -9.8090 
  14   2.0000      -0.338607        -9.2140 
  15   2.0000      -0.243023        -6.6130 
  16   0.0000       0.021190         0.5766 
  17   0.0000       0.053417         1.4536 
  18   0.0000       0.059027         1.6062 
  19   0.0000       0.072562         1.9745 
  20   0.0000       0.110034         2.9942 
  21   0.0000       0.111139         3.0243 
  22   0.0000       0.123078         3.3491 
  23   0.0000       0.130128         3.5410 
  24   0.0000       0.133665         3.6372 
  25   0.0000       0.162695         4.4271 
  26   0.0000       0.183454         4.9920 
*Only the first 10 virtual orbitals were printed.

                    ********************************
                    * MULLIKEN POPULATION ANALYSIS *
                    ********************************

-----------------------
MULLIKEN ATOMIC CHARGES
-----------------------
   0 C :   -0.303145
   1 C :   -0.104416
   2 H :    0.109078
   3 H :    0.101585
   4 H :    0.109125
   5 C :   -0.104423
   6 C :   -0.303147
   7 H :    0.109077
   8 H :    0.109127
   9 H :    0.101584
  10 H :    0.087778
  11 H :    0.087777
Sum of atomic charges:   -0.0000000

--------------------------------
MULLIKEN REDUCED ORBITAL CHARGES
--------------------------------
  0 C s       :     3.261082  s :     3.261082
      pz      :     1.028231  p :     2.989908
      px      :     0.947411
      py      :     1.014266
      dz2     :     0.002729  d :     0.048561
      dxz     :     0.019350
      dyz     :     0.005235
      dx2y2   :     0.010237
      dxy     :     0.011010
      f0      :     0.000526  f :     0.003593
      f+1     :     0.000538
      f-1     :     0.000074
      f+2     :     0.000513
      f-2     :     0.000492
      f+3     :     0.000712
      f-3     :     0.000740

  1 C s       :     3.203879  s :     3.203879
      pz      :     0.963514  p :     2.808520
      px      :     0.911770
      py      :     0.933235
      dz2     :     0.004593  d :     0.084921
      dxz     :     0.025116
      dyz     :     0.009610
      dx2y2   :     0.028908
      dxy     :     0.016695
      f0      :     0.000729  f :     0.007096
      f+1     :     0.001016
      f-1     :     0.000551
      f+2     :     0.001049
      f-2     :     0.000800
      f+3     :     0.001847
      f-3     :     0.001105

  2 H s       :     0.869593  s :     0.869593
      pz      :     0.010496  p :     0.021329
      px      :     0.006267
      py      :     0.004566

  3 H s       :     0.877002  s :     0.877002
      pz      :     0.006159  p :     0.021413
      px      :     0.004263
      py      :     0.010992

  4 H s       :     0.869548  s :     0.869548
      pz      :     0.006756  p :     0.021328
      px      :     0.007654
      py      :     0.006918

  5 C s       :     3.203886  s :     3.203886
      pz      :     0.963516  p :     2.808520
      px      :     0.911770
      py      :     0.933234
      dz2     :     0.004593  d :     0.084921
      dxz     :     0.025118
      dyz     :     0.009609
      dx2y2   :     0.028907
      dxy     :     0.016694
      f0      :     0.000729  f :     0.007096
      f+1     :     0.001016
      f-1     :     0.000551
      f+2     :     0.001049
      f-2     :     0.000800
      f+3     :     0.001847
      f-3     :     0.001105

  6 C s       :     3.261087  s :     3.261087
      pz      :     1.028228  p :     2.989906
      px      :     0.947410
      py      :     1.014268
      dz2     :     0.002728  d :     0.048561
      dxz     :     0.019352
      dyz     :     0.005234
      dx2y2   :     0.010237
      dxy     :     0.011009
      f0      :     0.000526  f :     0.003593
      f+1     :     0.000538
      f-1     :     0.000074
      f+2     :     0.000513
      f-2     :     0.000492
      f+3     :     0.000712
      f-3     :     0.000740

  7 H s       :     0.869594  s :     0.869594
      pz      :     0.010495  p :     0.021329
      px      :     0.006267
      py      :     0.004566

  8 H s       :     0.869546  s :     0.869546
      pz      :     0.006757  p :     0.021327
      px      :     0.007654
      py      :     0.006917

  9 H s       :     0.877002  s :     0.877002
      pz      :     0.006158  p :     0.021413
      px      :     0.004263
      py      :     0.010992

 10 H s       :     0.890287  s :     0.890287
      pz      :     0.006565  p :     0.021936
      px      :     0.003678
      py      :     0.011694

 11 H s       :     0.890287  s :     0.890287
      pz      :     0.006565  p :     0.021936
      px      :     0.003678
      py      :     0.011694



                     *******************************
                     * LOEWDIN POPULATION ANALYSIS *
                     *******************************

----------------------
LOEWDIN ATOMIC CHARGES
----------------------
   0 C :   -0.293408
   1 C :   -0.207575
   2 H :    0.122498
   3 H :    0.121669
   4 H :    0.122498
   5 C :   -0.207574
   6 C :   -0.293409
   7 H :    0.122497
   8 H :    0.122499
   9 H :    0.121668
  10 H :    0.134318
  11 H :    0.134318

-------------------------------
LOEWDIN REDUCED ORBITAL CHARGES
-------------------------------
  0 C s       :     2.826372  s :     2.826372
      pz      :     1.065485  p :     3.178313
      px      :     1.047258
      py      :     1.065570
      dz2     :     0.025956  d :     0.262912
      dxz     :     0.078364
      dyz     :     0.037889
      dx2y2   :     0.060696
      dxy     :     0.060006
      f0      :     0.003551  f :     0.025811
      f+1     :     0.004135
      f-1     :     0.001118
      f+2     :     0.003246
      f-2     :     0.003627
      f+3     :     0.005512
      f-3     :     0.004622

  1 C s       :     2.790150  s :     2.790150
      pz      :     0.928752  p :     2.979523
      px      :     1.065089
      py      :     0.985682
      dz2     :     0.025664  d :     0.395897
      dxz     :     0.088606
      dyz     :     0.040626
      dx2y2   :     0.140093
      dxy     :     0.100908
      f0      :     0.004179  f :     0.042004
      f+1     :     0.005790
      f-1     :     0.001188
      f+2     :     0.004641
      f-2     :     0.006937
      f+3     :     0.012392
      f-3     :     0.006877

  2 H s       :     0.817589  s :     0.817589
      pz      :     0.030108  p :     0.059913
      px      :     0.016315
      py      :     0.013490

  3 H s       :     0.818636  s :     0.818636
      pz      :     0.017729  p :     0.059695
      px      :     0.012240
      py      :     0.029727

  4 H s       :     0.817589  s :     0.817589
      pz      :     0.019408  p :     0.059913
      px      :     0.019711
      py      :     0.020794

  5 C s       :     2.790152  s :     2.790152
      pz      :     0.928754  p :     2.979523
      px      :     1.065088
      py      :     0.985680
      dz2     :     0.025664  d :     0.395895
      dxz     :     0.088606
      dyz     :     0.040625
      dx2y2   :     0.140093
      dxy     :     0.100907
      f0      :     0.004179  f :     0.042004
      f+1     :     0.005790
      f-1     :     0.001188
      f+2     :     0.004641
      f-2     :     0.006937
      f+3     :     0.012392
      f-3     :     0.006876

  6 C s       :     2.826375  s :     2.826375
      pz      :     1.065486  p :     3.178314
      px      :     1.047257
      py      :     1.065571
      dz2     :     0.025955  d :     0.262909
      dxz     :     0.078372
      dyz     :     0.037882
      dx2y2   :     0.060701
      dxy     :     0.060000
      f0      :     0.003551  f :     0.025810
      f+1     :     0.004135
      f-1     :     0.001118
      f+2     :     0.003246
      f-2     :     0.003628
      f+3     :     0.005511
      f-3     :     0.004623

  7 H s       :     0.817590  s :     0.817590
      pz      :     0.030107  p :     0.059913
      px      :     0.016316
      py      :     0.013489

  8 H s       :     0.817589  s :     0.817589
      pz      :     0.019410  p :     0.059912
      px      :     0.019710
      py      :     0.020792

  9 H s       :     0.818637  s :     0.818637
      pz      :     0.017727  p :     0.059695
      px      :     0.012240
      py      :     0.029729

 10 H s       :     0.807502  s :     0.807502
      pz      :     0.017778  p :     0.058179
      px      :     0.011113
      py      :     0.029288

 11 H s       :     0.807503  s :     0.807503
      pz      :     0.017778  p :     0.058179
      px      :     0.011112
      py      :     0.029288



                      *****************************
                      * MAYER POPULATION ANALYSIS *
                      *****************************

  NA   - Mulliken gross atomic population
  ZA   - Total nuclear charge
  QA   - Mulliken gross atomic charge
  VA   - Mayer's total valence
  BVA  - Mayer's bonded valence
  FA   - Mayer's free valence

  ATOM       NA         ZA         QA         VA         BVA        FA
  0 C      6.3031     6.0000    -0.3031     3.9017     3.9017    -0.0000
  1 C      6.1044     6.0000    -0.1044     3.8751     3.8751     0.0000
  2 H      0.8909     1.0000     0.1091     0.9609     0.9609     0.0000
  3 H      0.8984     1.0000     0.1016     0.9796     0.9796    -0.0000
  4 H      0.8909     1.0000     0.1091     0.9608     0.9608    -0.0000
  5 C      6.1044     6.0000    -0.1044     3.8751     3.8751    -0.0000
  6 C      6.3031     6.0000    -0.3031     3.9017     3.9017    -0.0000
  7 H      0.8909     1.0000     0.1091     0.9609     0.9609    -0.0000
  8 H      0.8909     1.0000     0.1091     0.9608     0.9608    -0.0000
  9 H      0.8984     1.0000     0.1016     0.9796     0.9796     0.0000
 10 H      0.9122     1.0000     0.0878     0.9738     0.9738     0.0000
 11 H      0.9122     1.0000     0.0878     0.9738     0.9738    -0.0000

  Mayer bond orders larger than 0.100000
B(  0-C ,  1-C ) :   0.9676 B(  0-C ,  2-H ) :   0.9642 B(  0-C ,  3-H ) :   0.9813 
B(  0-C ,  4-H ) :   0.9642 B(  1-C ,  5-C ) :   1.9247 B(  1-C , 10-H ) :   0.9511 
B(  5-C ,  6-C ) :   0.9676 B(  5-C , 11-H ) :   0.9511 B(  6-C ,  7-H ) :   0.9642 
B(  6-C ,  8-H ) :   0.9642 B(  6-C ,  9-H ) :   0.9813 

-------
TIMINGS
-------

Total SCF time: 0 days 0 hours 0 min 24 sec 

Total time                  ....      24.411 sec
Sum of individual times     ....      24.129 sec  ( 98.8%)

SCF preparation             ....       0.631 sec  (  2.6%)
Fock matrix formation       ....      22.548 sec  ( 92.4%)
  Startup                   ....       0.060 sec  (  0.3% of F)
  Split-RI-J                ....       1.481 sec  (  6.6% of F)
  Chain of spheres X        ....      15.725 sec  ( 69.7% of F)
  XC integration            ....       4.943 sec  ( 21.9% of F)
    XC Preparation          ....       0.000 sec  (  0.0% of XC)
    Basis function eval.    ....       1.501 sec  ( 30.4% of XC)
    Density eval.           ....       1.397 sec  ( 28.3% of XC)
    XC-Functional eval.     ....       0.198 sec  (  4.0% of XC)
    XC-Potential eval.      ....       1.339 sec  ( 27.1% of XC)
Diagonalization             ....       0.000 sec  (  0.0%)
Density matrix formation    ....       0.161 sec  (  0.7%)
Total Energy calculation    ....       0.089 sec  (  0.4%)
Population analysis         ....       0.038 sec  (  0.2%)
Orbital Transformation      ....       0.071 sec  (  0.3%)
Orbital Orthonormalization  ....       0.000 sec  (  0.0%)
DIIS solution               ....       0.405 sec  (  1.7%)
SOSCF solution              ....       0.187 sec  (  0.8%)
Finished LeanSCF after  24.4 sec

Maximum memory used throughout the entire LEANSCF-calculation: 15.8 MB


           ************************************************************
           *        Program running with 4 parallel MPI-processes     *
           *              working on a common directory               *
           ************************************************************

------------------------------------------------------------------------------
                         ORCA PROPERTY INTEGRAL CALCULATIONS
------------------------------------------------------------------------------

GBWName                                   ... trans.gbw
Number of atoms                           ...     12
Number of basis functions                 ...    172
Max core memory                           ...   1800 MB

Dipole integrals                          ... YES
Quadrupole integrals                      ...  NO
Linear momentum integrals                 ...  NO
Angular momentum integrals                ...  NO
Higher moments length integrals           ...  NO
Higher moments velocity integrals         ...  NO
Kinetic energy integrals                  ...  NO
GIAO right hand sides                     ...  NO
GIAO dipole derivative integrals          ...  NO
SOC integrals                             ...  NO
EPR diamagnetic integrals (GIAO)          ...  NO
EPR gauge integrals                       ...  NO
Field gradient integrals                  ...  NO (   0 nuclei)
Spin-dipole/Fermi contact integrals       ...  NO (   0 nuclei)
Contact density integrals                 ...  NO (   0 nuclei)
Nucleus-orbit integrals                   ...  NO (   0 nuclei)
Geometric perturbations                   ...  NO (  12 nuclei)

Choice of electric origin   ... Center of mass
Position of electric origin ... ( -1.1673,  0.3409,  0.0310) 
Choice of magnetic origin   ... GIAO
Position of magnetic origin ... (  0.0000,  0.0000,  0.0000) 

Calculating integrals                     ... Electric Dipole (Length)     done (  0.0 sec)

Property integrals calculated in   0.0 sec

Maximum memory used throughout the entire PROPINT-calculation: 11.2 MB


-------------------------------------------------------------------------------
                          DFT DISPERSION CORRECTION                            
                                                                               
                                DFTD4 V3.4.0                                   
-------------------------------------------------------------------------------
The B3LYP functional is recognized
Active option DFTDOPT                   ...         5   

-------------------------   ----------------
Dispersion correction           -0.010483923
-------------------------   ----------------


-------------------------   --------------------
FINAL SINGLE POINT ENERGY      -157.184735406608
-------------------------   --------------------



           ************************************************************
           *        Program running with 4 parallel MPI-processes     *
           *              working on a common directory               *
           ************************************************************
------------------------------------------------------------------------------
                         ORCA SCF GRADIENT CALCULATION
------------------------------------------------------------------------------

Nuc. rep. gradient        (SHARK) ... done (  0.0 sec)
HCore & Overlap gradient  (SHARK) ... done (  0.1 sec)
Split-RIJ-J gradient      (SHARK) ... done (  0.7 sec)
COSX-gradient                     ... done ( 13.9 sec)
XC gradient                       ... done (  3.4 sec)
Dispersion correction             ... done (  0.1 sec)

-------------------
DISPERSION GRADIENT
-------------------

   1   C   :    0.000416557    0.000071848    0.000009198
   2   C   :    0.000218947   -0.000051089    0.000051177
   3   H   :    0.000099030    0.000013914    0.000023326
   4   H   :    0.000095547    0.000021496   -0.000000507
   5   H   :    0.000102435   -0.000001910   -0.000007027
   6   C   :   -0.000218943    0.000051087   -0.000051180
   7   C   :   -0.000416559   -0.000071846   -0.000009197
   8   H   :   -0.000099029   -0.000013912   -0.000023324
   9   H   :   -0.000102438    0.000001910    0.000007030
  10   H   :   -0.000095548   -0.000021496    0.000000506
  11   H   :    0.000051040   -0.000042496    0.000027884
  12   H   :   -0.000051039    0.000042495   -0.000027886

Difference to translation invariance:
           :   -0.0000000000    0.0000000000   -0.0000000000

Difference to rotation invariance:
           :   -0.0000000000    0.0000000000   -0.0000000000

Norm of the Dispersion gradient    ...    0.0007318531
RMS gradient                       ...    0.0001219755
MAX gradient                       ...    0.0004165594

------------------
CARTESIAN GRADIENT
------------------

   1   C   :    0.000030608   -0.000039434    0.000022792
   2   C   :   -0.000004937    0.000049734   -0.000029504
   3   H   :   -0.000000524   -0.000006096   -0.000005820
   4   H   :   -0.000032526    0.000009756   -0.000011802
   5   H   :   -0.000002923   -0.000002512    0.000008177
   6   C   :    0.000009728   -0.000051771    0.000029914
   7   C   :   -0.000032719    0.000039263   -0.000020920
   8   H   :   -0.000000136    0.000006007    0.000003746
   9   H   :    0.000001118    0.000003472   -0.000006895
  10   H   :    0.000033137   -0.000010237    0.000011437
  11   H   :    0.000047045   -0.000008541    0.000010183
  12   H   :   -0.000047871    0.000010360   -0.000011307

Difference to translation invariance:
           :    0.0000000000   -0.0000000000    0.0000000000

Difference to rotation invariance:
           :   -0.0000404912    0.0001226024    0.0001236967

Norm of the Cartesian gradient     ...    0.0001445890
RMS gradient                       ...    0.0000240982
MAX gradient                       ...    0.0000517709

-------
TIMINGS
-------

Total SCF gradient time     ....       18.179 sec

Densities                   ....       0.001 sec  (  0.0%)
One electron gradient       ....       0.112 sec  (  0.6%)
RI-J Coulomb gradient       ....       0.657 sec  (  3.6%)
COSX gradient               ....      13.899 sec  ( 76.5%)
XC gradient                 ....       3.410 sec  ( 18.8%)

Maximum memory used throughout the entire SCFGRAD-calculation: 29.6 MB
------------------------------------------------------------------------------
                         ORCA GEOMETRY RELAXATION STEP
------------------------------------------------------------------------------

Reading the OPT-File                    .... done
Getting information on internals        .... done
Copying old internal coords+grads       .... done
Making the new internal coordinates     .... (2022 redundants) done
Validating the new internal coordinates .... (2022 redundants) done
Calculating the B-matrix                .... done
Calculating the G,G- and P matrices     .... done
Transforming gradient to internals      .... done
Projecting the internal gradient        .... done
Number of atoms                         ....  12
Number of internal coordinates          ....  43
Current Energy                          ....  -157.184735407 Eh
Current gradient norm                   ....     0.000144589 Eh/bohr
Maximum allowed component of the step   ....  0.300
Current trust radius                    ....  0.300
Evaluating the initial hessian          ....  (Almloef) done
Projecting the Hessian                  .... done
Forming the augmented Hessian           .... done
Diagonalizing the augmented Hessian     .... done
Last element of RFO vector              ....  0.999999900
Lowest eigenvalues of augmented Hessian:
 -0.000000059  0.013165538  0.013166164  0.027481473  0.027482960
Length of the computed step             ....  0.000446800
The final length of the internal step   ....  0.000446800
Converting the step to Cartesian space:
 Initial RMS(Int)=    0.0000681363
Transforming coordinates:
 Iter   0:  RMS(Cart)=    0.0001075920 RMS(Int)=    0.9581762883
done
Storing new coordinates                 .... done

                                .--------------------.
          ----------------------|Geometry convergence|-------------------------
          Item                value                   Tolerance       Converged
          ---------------------------------------------------------------------
          RMS gradient        0.0000221786            0.0001000000      YES
          MAX gradient        0.0000663237            0.0003000000      YES
          RMS step            0.0000681363            0.0020000000      YES
          MAX step            0.0001879095            0.0040000000      YES
          ........................................................
          Max(Bonds)      0.0000      Max(Angles)    0.01
          Max(Dihed)        0.00      Max(Improp)    0.00
          ---------------------------------------------------------------------

                    ***********************HURRAY********************
                    ***        THE OPTIMIZATION HAS CONVERGED     ***
                    *************************************************


    ---------------------------------------------------------------------------
                         Redundant Internal Coordinates

                          --- Optimized Parameters ---  
                            (Angstroem and degrees)

        Definition                    OldVal   dE/dq     Step     FinalVal
    ----------------------------------------------------------------------------
     1. B(C   1,C   0)                1.4968 -0.000026  0.0000    1.4968   
     2. B(H   2,C   0)                1.0945 -0.000004  0.0000    1.0945   
     3. B(H   3,C   0)                1.0915  0.000012 -0.0000    1.0915   
     4. B(H   4,C   0)                1.0945 -0.000004  0.0000    1.0945   
     5. B(C   5,C   1)                1.3287  0.000037 -0.0000    1.3287   
     6. B(C   6,C   5)                1.4968 -0.000022  0.0000    1.4968   
     7. B(H   7,C   6)                1.0945 -0.000002  0.0000    1.0945   
     8. B(H   8,C   6)                1.0945 -0.000002  0.0000    1.0945   
     9. B(H   9,C   6)                1.0915  0.000012 -0.0000    1.0915   
    10. B(H  10,C   1)                1.0887  0.000012 -0.0000    1.0887   
    11. B(H  11,C   5)                1.0887  0.000014 -0.0000    1.0887   
    12. A(H   2,C   0,H   4)          106.59 -0.000003    0.00    106.59   
    13. A(H   3,C   0,H   4)          108.09  0.000021   -0.00    108.09   
    14. A(C   1,C   0,H   2)          111.21  0.000002   -0.00    111.21   
    15. A(C   1,C   0,H   4)          111.22  0.000001    0.00    111.22   
    16. A(C   1,C   0,H   3)          111.45 -0.000039    0.01    111.46   
    17. A(H   2,C   0,H   3)          108.08  0.000020   -0.00    108.08   
    18. A(C   0,C   1,H  10)          116.18 -0.000065    0.01    116.19   
    19. A(C   0,C   1,C   5)          125.26  0.000037   -0.01    125.25   
    20. A(C   5,C   1,H  10)          118.57  0.000028   -0.01    118.56   
    21. A(C   6,C   5,H  11)          116.18 -0.000066    0.01    116.19   
    22. A(C   1,C   5,H  11)          118.57  0.000028   -0.01    118.56   
    23. A(C   1,C   5,C   6)          125.26  0.000038   -0.01    125.25   
    24. A(H   8,C   6,H   9)          108.09  0.000021   -0.00    108.09   
    25. A(H   7,C   6,H   9)          108.08  0.000021   -0.00    108.08   
    26. A(C   5,C   6,H   9)          111.45 -0.000040    0.01    111.46   
    27. A(H   7,C   6,H   8)          106.59 -0.000002    0.00    106.59   
    28. A(C   5,C   6,H   8)          111.22  0.000002   -0.00    111.22   
    29. A(C   5,C   6,H   7)          111.21  0.000001   -0.00    111.21   
    30. D(H  10,C   1,C   0,H   2)    -59.30 -0.000000    0.00    -59.30   
    31. D(C   5,C   1,C   0,H   4)   -120.67 -0.000002    0.00   -120.67   
    32. D(H  10,C   1,C   0,H   3)   -179.98 -0.000001    0.00   -179.98   
    33. D(C   5,C   1,C   0,H   2)    120.70 -0.000000    0.00    120.70   
    34. D(C   5,C   1,C   0,H   3)      0.02 -0.000001    0.00      0.02   
    35. D(C   6,C   5,C   1,C   0)   -180.00 -0.000000   -0.00   -180.00   
    36. D(H  11,C   5,C   1,H  10)    180.00  0.000000    0.00    180.00   
    37. D(H  11,C   5,C   1,C   0)      0.00  0.000000   -0.00      0.00   
    38. D(C   6,C   5,C   1,H  10)     -0.00 -0.000000    0.00     -0.00   
    39. D(H   9,C   6,C   5,C   1)     -0.02  0.000000   -0.00     -0.03   
    40. D(H   8,C   6,C   5,H  11)    -59.33  0.000001   -0.00    -59.34   
    41. D(H   8,C   6,C   5,C   1)    120.67  0.000001   -0.00    120.66   
    42. D(H   7,C   6,C   5,H  11)     59.30  0.000000   -0.00     59.30   
    43. D(H   7,C   6,C   5,C   1)   -120.70  0.000000   -0.00   -120.70   
    ----------------------------------------------------------------------------

Geometry step timings:
Preparation and reading OPT file:      0.001 s ( 9.942 %)
Internal coordinates            :      0.000 s ( 0.359 %)
B/P matrices and projection     :      0.001 s ( 8.010 %)
Hessian update/contruction      :      0.005 s (44.937 %)
Making the step                 :      0.001 s ( 6.147 %)
Converting the step to Cartesian:      0.000 s ( 1.154 %)
Storing new data                :      0.001 s ( 9.488 %)
Checking convergence            :      0.000 s ( 0.061 %)
Final printing                  :      0.002 s (19.815 %)
Total time                      :      0.011 s
                 *******************************************************
                 *** FINAL ENERGY EVALUATION AT THE STATIONARY POINT ***
                 ***               (AFTER    1 CYCLES)               ***
                 *******************************************************
---------------------------------
CARTESIAN COORDINATES (ANGSTROEM)
---------------------------------
  C      1.310032    0.514559    0.058029
  C     -0.048229   -0.092550    0.222567
  H      1.795402    0.667593    1.027003
  H      1.257370    1.478901   -0.450511
  H      1.968792   -0.139692   -0.521555
  C     -1.187234    0.453294   -0.189783
  C     -2.545500   -0.153805   -0.025232
  H     -3.030912   -0.306755   -0.994198
  H     -3.204225    0.500411    0.554430
  H     -2.492830   -1.118188    0.483230
  H     -0.085161   -1.058945    0.722576
  H     -1.150306    1.419688   -0.689795

----------------------------
CARTESIAN COORDINATES (A.U.)
----------------------------
  NO LB      ZA    FRAG     MASS         X           Y           Z
   0 C     6.0000    0    12.011    2.475601    0.972375    0.109658
   1 C     6.0000    0    12.011   -0.091139   -0.174895    0.420590
   2 H     1.0000    0     1.008    3.392818    1.261568    1.940754
   3 H     1.0000    0     1.008    2.376085    2.794717   -0.851342
   4 H     1.0000    0     1.008    3.720477   -0.263979   -0.985596
   5 C     6.0000    0    12.011   -2.243548    0.856602   -0.358638
   6 C     6.0000    0    12.011   -4.810298   -0.290649   -0.047682
   7 H     1.0000    0     1.008   -5.727594   -0.579683   -1.878762
   8 H     1.0000    0     1.008   -6.055107    0.945640    1.047721
   9 H     1.0000    0     1.008   -4.710765   -2.113069    0.913172
  10 H     1.0000    0     1.008   -0.160930   -2.001116    1.365471
  11 H     1.0000    0     1.008   -2.173763    2.682821   -1.303524

--------------------------------
INTERNAL COORDINATES (ANGSTROEM)
--------------------------------
 C      0   0   0     0.000000000000     0.00000000     0.00000000
 C      1   0   0     1.496838483720     0.00000000     0.00000000
 H      1   2   0     1.094492927835   111.21095539     0.00000000
 H      1   2   3     1.091485662158   111.45572124   239.32203829
 H      1   2   3     1.094497898557   111.21820624   118.63107318
 C      2   1   3     1.328650762205   125.25068487   120.69886061
 C      6   2   1     1.496840645416   125.25084541   180.00075347
 H      7   6   2     1.094492675803   111.21079962   239.29559332
 H      7   6   2     1.094497827460   111.21829385   120.66454274
 H      7   6   2     1.091486050347   111.45557336   359.97344414
 H      2   1   3     1.088710711687   116.18637093   300.69970430
 H      6   2   1     1.088711217966   118.56314571     0.00000000

---------------------------
INTERNAL COORDINATES (A.U.)
---------------------------
 C      0   0   0     0.000000000000     0.00000000     0.00000000
 C      1   0   0     2.828614800945     0.00000000     0.00000000
 H      1   2   0     2.068291889123   111.21095539     0.00000000
 H      1   2   3     2.062608980581   111.45572124   239.32203829
 H      1   2   3     2.068301282425   111.21820624   118.63107318
 C      2   1   3     2.510786068194   125.25068487   120.69886061
 C      6   2   1     2.828618885959   125.25084541   180.00075347
 H      7   6   2     2.068291412850   111.21079962   239.29559332
 H      7   6   2     2.068301148072   111.21829385   120.66454274
 H      7   6   2     2.062609714152   111.45557336   359.97344414
 H      2   1   3     2.057365084155   116.18637093   300.69970430
 H      6   2   1     2.057366040884   118.56314571     0.00000000

---------------------
BASIS SET INFORMATION
---------------------
There are 2 groups of distinct atoms

 Group   1 Type C   : 11s6p2d1f contracted to 5s3p2d1f pattern {62111/411/11/1}
 Group   2 Type H   : 5s1p contracted to 3s1p pattern {311/1}

Atom   0C    basis set group =>   1
Atom   1C    basis set group =>   1
Atom   2H    basis set group =>   2
Atom   3H    basis set group =>   2
Atom   4H    basis set group =>   2
Atom   5C    basis set group =>   1
Atom   6C    basis set group =>   1
Atom   7H    basis set group =>   2
Atom   8H    basis set group =>   2
Atom   9H    basis set group =>   2
Atom  10H    basis set group =>   2
Atom  11H    basis set group =>   2
---------------------------------
AUXILIARY/J BASIS SET INFORMATION
---------------------------------
There are 2 groups of distinct atoms

 Group   1 Type C   : 12s5p4d2f1g contracted to 6s4p3d1f1g pattern {711111/2111/211/2/1}
 Group   2 Type H   : 5s2p1d contracted to 3s1p1d pattern {311/2/1}

Atom   0C    basis set group =>   1
Atom   1C    basis set group =>   1
Atom   2H    basis set group =>   2
Atom   3H    basis set group =>   2
Atom   4H    basis set group =>   2
Atom   5C    basis set group =>   1
Atom   6C    basis set group =>   1
Atom   7H    basis set group =>   2
Atom   8H    basis set group =>   2
Atom   9H    basis set group =>   2
Atom  10H    basis set group =>   2
Atom  11H    basis set group =>   2


           ************************************************************
           *        Program running with 4 parallel MPI-processes     *
           *              working on a common directory               *
           ************************************************************
------------------------------------------------------------------------------
                             ORCA STARTUP CALCULATIONS
                           -- RI-GTO INTEGRALS CHOSEN --
------------------------------------------------------------------------------
------------------------------------------------------------------------------
                   ___                                                        
                  /   \      - P O W E R E D   B Y -                         
                 /     \                                                     
                 |  |  |   _    _      __       _____    __    __             
                 |  |  |  | |  | |    /  \     |  _  \  |  |  /  |          
                  \  \/   | |  | |   /    \    | | | |  |  | /  /          
                 / \  \   | |__| |  /  /\  \   | |_| |  |  |/  /          
                |  |  |   |  __  | /  /__\  \  |    /   |      \           
                |  |  |   | |  | | |   __   |  |    \   |  |\   \          
                \     /   | |  | | |  |  |  |  | |\  \  |  | \   \       
                 \___/    |_|  |_| |__|  |__|  |_| \__\ |__|  \__/        
                                                                              
                      - O R C A' S   B I G   F R I E N D -                    
                                      &                                       
                       - I N T E G R A L  F E E D E R -                       
                                                                              
 v1 FN, 2020, v2 2021, v3 2022-2024                                           
------------------------------------------------------------------------------


----------------------
SHARK INTEGRAL PACKAGE
----------------------

Number of atoms                             ...     12
Number of basis functions                   ...    172
Number of shells                            ...     76
Maximum angular momentum                    ...      3
Integral batch strategy                     ... SHARK/LIBINT Hybrid
RI-J (if used) integral strategy            ... SPLIT-RIJ (Revised 2003 algorithm where possible)
Printlevel                                  ...      1
Contraction scheme used                     ... SEGMENTED contraction
Prescreening option                         ... SCHWARTZ
   Thresh                                   ... 2.500e-11
   Tcut                                     ... 2.500e-12
   Tpresel                                  ... 2.500e-12 
Coulomb Range Separation                    ... NOT USED
Exchange Range Separation                   ... NOT USED
Multipole approximations                    ... NOT USED
Finite Nucleus Model                        ... NOT USED
CABS basis                                  ... NOT available
Auxiliary Coulomb fitting basis             ... AVAILABLE
   # of basis functions in Aux-J            ...    284
   # of shells in Aux-J                     ...    100
   Maximum angular momentum in Aux-J        ...      4
Auxiliary J/K fitting basis                 ... NOT available
Auxiliary Correlation fitting basis         ... NOT available
Auxiliary 'external' fitting basis          ... NOT available

Checking pre-screening integrals            ... done (  0.0 sec) Dimension = 76
Check shell pair data                       ... done (  0.0 sec)
Shell pair information
Shell pair cut-off parameter TPreSel        ...   2.5e-12
Total number of shell pairs                 ...      2926
Shell pairs after pre-screening             ...      2795
Total number of primitive shell pairs       ...      8368
Primitive shell pairs kept                  ...      6528
          la=0 lb=0:    934 shell pairs
          la=1 lb=0:    836 shell pairs
          la=1 lb=1:    201 shell pairs
          la=2 lb=0:    342 shell pairs
          la=2 lb=1:    156 shell pairs
          la=2 lb=2:     36 shell pairs
          la=3 lb=0:    168 shell pairs
          la=3 lb=1:     80 shell pairs
          la=3 lb=2:     32 shell pairs
          la=3 lb=3:     10 shell pairs

Calculating one electron integrals          ... done (  0.0 sec)
Calculating RI/J V-Matrix + Cholesky decomp.... done (  0.0 sec)
Calculating Nuclear repulsion               ... done (  0.0 sec) ENN=    116.006427837929 Eh

Diagonalization of the overlap matrix:
Smallest eigenvalue                        ... 1.392e-04
Time for diagonalization                   ...    0.011 sec
Threshold for overlap eigenvalues          ... 1.000e-07
Number of eigenvalues below threshold      ... 0
Time for construction of square roots      ...    0.010 sec
Total time needed                          ...    0.034 sec

-------------------
DFT GRID GENERATION
-------------------

General Integration Accuracy     IntAcc      ... 4.388
Radial Grid Type                 RadialGrid  ... OptM3 with GC (2021)
Angular Grid (max. ang.)         AngularGrid ... 4 (Lebedev-302)
Angular grid pruning method      GridPruning ... 4 (adaptive)
Weight generation scheme         WeightScheme... mBecke (2022)
Basis function cutoff            BFCut       ... 1.0000e-11
Integration weight cutoff        WCut        ... 1.0000e-14
Partially contracted basis set               ... off
Rotationally invariant grid construction     ... off
Angular grids for H and He will be reduced by one unit

Total number of grid points                  ...    50160
Total number of batches                      ...      787
Average number of points per batch           ...       63
Average number of grid points per atom       ...     4180

--------------------
COSX GRID GENERATION
--------------------

GRIDX 1
-------
General Integration Accuracy     IntAcc      ... 3.816
Radial Grid Type                 RadialGrid  ... OptM3 with GC (2021)
Angular Grid (max. ang.)         AngularGrid ... 1 (Lebedev-50)
Angular grid pruning method      GridPruning ... 4 (adaptive)
Weight generation scheme         WeightScheme... mBecke (2022)
Basis function cutoff            BFCut       ... 1.0000e-11
Integration weight cutoff        WCut        ... 1.0000e-14
Partially contracted basis set               ... on
Rotationally invariant grid construction     ... off
Angular grids for H and He will be reduced by one unit

Total number of grid points                  ...     6480
Total number of batches                      ...       58
Average number of points per batch           ...      111
Average number of grid points per atom       ...      540
UseSFitting                                  ... on

GRIDX 2
-------
General Integration Accuracy     IntAcc      ... 4.020
Radial Grid Type                 RadialGrid  ... OptM3 with GC (2021)
Angular Grid (max. ang.)         AngularGrid ... 2 (Lebedev-110)
Angular grid pruning method      GridPruning ... 4 (adaptive)
Weight generation scheme         WeightScheme... mBecke (2022)
Basis function cutoff            BFCut       ... 1.0000e-11
Integration weight cutoff        WCut        ... 1.0000e-14
Partially contracted basis set               ... on
Rotationally invariant grid construction     ... off
Angular grids for H and He will be reduced by one unit

Total number of grid points                  ...    13514
Total number of batches                      ...      110
Average number of points per batch           ...      122
Average number of grid points per atom       ...     1126
UseSFitting                                  ... on

GRIDX 3
-------
General Integration Accuracy     IntAcc      ... 4.338
Radial Grid Type                 RadialGrid  ... OptM3 with GC (2021)
Angular Grid (max. ang.)         AngularGrid ... 3 (Lebedev-194)
[...]
     16       0.006016  -0.005382  -0.008192  -0.119597  -0.000417   0.002012
     17       0.011594  -0.000153   0.006577   0.110150   0.000263  -0.000978
     18      -0.003811   0.012904  -0.000849  -0.056689  -0.036032   0.035824
     19       0.017674  -0.033827  -0.029965   0.001168  -0.004626   0.004236
     20       0.034234   0.018901   0.015461  -0.006962  -0.001589   0.001770
     21      -0.088511  -0.255913  -0.261933  -0.167823   0.188855  -0.189664
     22      -0.314583   0.364223   0.344067   0.017859   0.063378  -0.063999
     23       0.113925   0.079221   0.076420   0.052055   0.404453  -0.404963
     24       0.094053  -0.204880  -0.212640  -0.153812   0.261655  -0.262571
     25       0.283168   0.120235   0.111723  -0.047109  -0.274813   0.274776
     26      -0.179372  -0.382911  -0.366917  -0.072874  -0.244215   0.244843
     27       0.051245   0.293176   0.322686   0.166845  -0.022741   0.023051
     28      -0.232013   0.005855   0.011536   0.018062   0.268116  -0.261652
     29      -0.445101   0.032058   0.030964   0.009265  -0.142300   0.138965
     30      -0.002139  -0.057213  -0.087059   0.405095  -0.003308  -0.000579
     31       0.009190   0.002418  -0.012667   0.178526   0.003357   0.028504
     32       0.017562  -0.007726  -0.003060  -0.047701  -0.002115  -0.014937
     33       0.002100   0.057174  -0.087085  -0.405092  -0.003309   0.000574
     34      -0.009108  -0.002420  -0.012666  -0.178528   0.003408  -0.028492
     35      -0.017398   0.007731  -0.003059   0.047702  -0.002141   0.014930
                 30         31         32         33         34         35    
      0       0.006333  -0.006305  -0.018039  -0.017211  -0.009234  -0.007864
      1      -0.029614   0.029474   0.050112   0.050341   0.019068   0.018771
      2      -0.057064   0.056777  -0.028000  -0.028037  -0.010947  -0.010652
      3       0.000049  -0.000028  -0.001712   0.000505  -0.004379   0.002276
      4      -0.000268   0.000142  -0.018785  -0.018461   0.050384   0.049428
      5      -0.000443   0.000227   0.009612   0.009693  -0.026780  -0.025533
      6       0.225348  -0.223836   0.080265   0.074872   0.041480   0.033443
      7       0.061377  -0.060944   0.038940   0.036692   0.018436   0.014785
      8       0.441818  -0.439416   0.171369   0.162092   0.080869   0.067210
      9       0.001520  -0.001511   0.032687   0.032403   0.012741   0.008252
     10      -0.007882   0.007801  -0.526359  -0.533245  -0.191286  -0.199656
     11      -0.012703   0.012675   0.278065   0.281625   0.101142   0.105014
     12      -0.302900   0.301027   0.113284   0.106079   0.056625   0.045950
     13       0.302157  -0.300654  -0.110551  -0.104719  -0.051449  -0.043115
     14       0.256148  -0.254789  -0.114126  -0.107982  -0.052970  -0.043725
     15       0.000049   0.000028  -0.001711  -0.000509   0.004379   0.002278
     16      -0.000267  -0.000144  -0.018824   0.018424  -0.050402   0.049409
     17      -0.000441  -0.000229   0.009633  -0.009674   0.026790  -0.025523
     18       0.006292   0.006335  -0.018076   0.017175   0.009237  -0.007861
     19      -0.029447  -0.029638   0.050216  -0.050239  -0.019077   0.018765
     20      -0.056745  -0.057099  -0.028054   0.027978   0.010951  -0.010648
     21       0.224119   0.225133   0.080439  -0.074730  -0.041503   0.033440
     22       0.060999   0.061255   0.039004  -0.036603  -0.018436   0.014776
     23       0.439362   0.441923   0.171727  -0.161773  -0.080909   0.067199
     24      -0.301171  -0.302686   0.113497  -0.105832  -0.056639   0.045923
     25       0.300429   0.302311  -0.110762   0.104478   0.051462  -0.043091
     26       0.254732   0.256241  -0.114363   0.107755   0.052993  -0.043709
     27       0.001507   0.001517   0.032755  -0.032339  -0.012746   0.008249
     28      -0.007784  -0.007798  -0.527449   0.532184   0.191378  -0.199605
     29      -0.012659  -0.012771   0.278586  -0.281008  -0.101170   0.104966
     30      -0.000007   0.000157   0.009100   0.003986  -0.020932  -0.021077
     31       0.000416  -0.000934   0.224676   0.226452  -0.583211  -0.584643
     32      -0.000023  -0.001256  -0.116199  -0.117697   0.301926   0.302665
     33      -0.000006  -0.000157   0.009108  -0.003968   0.020939  -0.021068
     34       0.000413   0.000947   0.225153  -0.226008   0.583417  -0.584426
     35      -0.000031   0.001250  -0.116448   0.117467  -0.302035   0.302555


-----------
IR SPECTRUM
-----------

 Mode   freq       eps      Int      T**2         TX        TY        TZ
       cm**-1   L/(mol*cm) km/mol    a.u.
----------------------------------------------------------------------------
  6:    177.51   0.000244    1.23  0.000429  (-0.002035  0.009456  0.018306)
  7:    230.97   0.000000    0.00  0.000000  ( 0.000001 -0.000001  0.000002)
  8:    246.10   0.000748    3.78  0.000949  ( 0.003103 -0.014197 -0.027162)
  9:    283.73   0.000230    1.16  0.000253  (-0.015437  0.002380 -0.003014)
 10:    503.46   0.000000    0.00  0.000000  ( 0.000000 -0.000000  0.000000)
 11:    762.83   0.000000    0.00  0.000000  (-0.000001  0.000000 -0.000000)
 12:    877.08   0.000000    0.00  0.000000  ( 0.000000 -0.000000 -0.000000)
 13:    991.81   0.002719   13.74  0.000856  (-0.024386  0.012882 -0.009747)
 14:    998.06   0.007109   35.92  0.002223  ( 0.004799 -0.021784 -0.041534)
 15:   1070.34   0.000341    1.72  0.000099  (-0.000852  0.004541  0.008835)
 16:   1073.40   0.000000    0.00  0.000000  ( 0.000006 -0.000003 -0.000003)
 17:   1076.88   0.000677    3.42  0.000196  (-0.012841  0.004281 -0.003598)
 18:   1169.42   0.000000    0.00  0.000000  (-0.000000 -0.000000 -0.000001)
 19:   1334.67   0.000990    5.01  0.000232  ( 0.014832  0.003399 -0.000138)
 20:   1337.59   0.000000    0.00  0.000000  ( 0.000004  0.000001  0.000000)
 21:   1414.03   0.000775    3.92  0.000171  (-0.003800 -0.011284  0.005410)
 22:   1415.55   0.000000    0.00  0.000000  (-0.000005 -0.000016  0.000008)
 23:   1478.48   0.002766   13.98  0.000584  (-0.002368  0.011032  0.021365)
 24:   1478.98   0.000000    0.00  0.000000  (-0.000007  0.000030  0.000049)
 25:   1487.96   0.000000    0.00  0.000000  (-0.000002  0.000006  0.000001)
 26:   1496.17   0.004010   20.26  0.000836  (-0.010869  0.023255 -0.013318)
 27:   1740.25   0.000000    0.00  0.000000  (-0.000001 -0.000000 -0.000000)
 28:   3011.83   0.014042   70.96  0.001455  (-0.037680 -0.005810 -0.001162)
 29:   3012.17   0.000000    0.00  0.000000  (-0.000034 -0.000005 -0.000003)
 30:   3050.87   0.008792   44.43  0.000899  ( 0.003011 -0.013709 -0.026500)
 31:   3051.40   0.000000    0.00  0.000000  ( 0.000006 -0.000038 -0.000074)
 32:   3086.09   0.003885   19.63  0.000393  (-0.009005  0.015270 -0.008866)
 33:   3087.69   0.000000    0.00  0.000000  (-0.000009  0.000016 -0.000010)
 34:   3108.15   0.000000    0.00  0.000000  (-0.000001 -0.000006  0.000003)
 35:   3118.00   0.014060   71.06  0.001407  ( 0.003424  0.033290 -0.016949)

* The epsilon (eps) is given for a Dirac delta lineshape.
** The dipole moment derivative (T) already includes vibrational overlap.

The first frequency considered to be a vibration is 6
The total number of vibrations considered is 30


--------------------------
THERMOCHEMISTRY AT 298.15K
--------------------------

Temperature         ...   298.15 K
Pressure            ...     1.00 atm
Total Mass          ...    56.11 AMU
Quasi RRHO          ...     True
Cut-Off Frequency   ...     1.00 cm^-1

Throughout the following assumptions are being made:
  (1) The electronic state is orbitally nondegenerate
  (2) There are no thermally accessible electronically excited states
  (3) Hindered rotations indicated by low frequency modes are not
      treated as such but are treated as vibrations and this may
      cause some error
  (4) All equations used are the standard statistical mechanics
      equations for an ideal gas
  (5) All vibrations are strictly harmonic

freq.     177.51  E(vib)   ...       0.37 
freq.     230.97  E(vib)   ...       0.32 
freq.     246.10  E(vib)   ...       0.31 
freq.     283.73  E(vib)   ...       0.28 
freq.     503.46  E(vib)   ...       0.14 
freq.     762.83  E(vib)   ...       0.06 
freq.     877.08  E(vib)   ...       0.04 
freq.     991.81  E(vib)   ...       0.02 
freq.     998.06  E(vib)   ...       0.02 
freq.    1070.34  E(vib)   ...       0.02 
freq.    1073.40  E(vib)   ...       0.02 
freq.    1076.88  E(vib)   ...       0.02 
freq.    1169.42  E(vib)   ...       0.01 
freq.    1334.67  E(vib)   ...       0.01 
freq.    1337.59  E(vib)   ...       0.01 
freq.    1414.03  E(vib)   ...       0.00 
freq.    1415.55  E(vib)   ...       0.00 
freq.    1478.48  E(vib)   ...       0.00 
freq.    1478.98  E(vib)   ...       0.00 
freq.    1487.96  E(vib)   ...       0.00 
freq.    1496.17  E(vib)   ...       0.00 
freq.    1740.25  E(vib)   ...       0.00 
freq.    3011.83  E(vib)   ...       0.00 
freq.    3012.17  E(vib)   ...       0.00 
freq.    3050.87  E(vib)   ...       0.00 
freq.    3051.40  E(vib)   ...       0.00 
freq.    3086.09  E(vib)   ...       0.00 
freq.    3087.69  E(vib)   ...       0.00 
freq.    3108.15  E(vib)   ...       0.00 
freq.    3118.00  E(vib)   ...       0.00 

------------
INNER ENERGY
------------

The inner energy is: U= E(el) + E(ZPE) + E(vib) + E(rot) + E(trans)
    E(el)   - is the total energy from the electronic structure calculation
              = E(kin-el) + E(nuc-el) + E(el-el) + E(nuc-nuc)
    E(ZPE)  - the the zero temperature vibrational energy from the frequency calculation
    E(vib)  - the the finite temperature correction to E(ZPE) due to population
              of excited vibrational states
    E(rot)  - is the rotational thermal energy
    E(trans)- is the translational thermal energy

Summary of contributions to the inner energy U:
Electronic energy                ...   -157.18473545 Eh
Zero point energy                ...      0.10746447 Eh      67.43 kcal/mol
Thermal vibrational correction   ...      0.00264700 Eh       1.66 kcal/mol
Thermal rotational correction    ...      0.00141627 Eh       0.89 kcal/mol
Thermal translational correction ...      0.00141627 Eh       0.89 kcal/mol
-----------------------------------------------------------------------
Total thermal energy                   -157.07179143 Eh


Summary of corrections to the electronic energy:
(perhaps to be used in another calculation)
Total thermal correction                  0.00547954 Eh       3.44 kcal/mol
Non-thermal (ZPE) correction              0.10746447 Eh      67.43 kcal/mol
-----------------------------------------------------------------------
Total correction                          0.11294402 Eh      70.87 kcal/mol


--------
ENTHALPY
--------

The enthalpy is H = U + kB*T
                kB is Boltzmann's constant
Total thermal energy              ...   -157.07179143 Eh 
Thermal Enthalpy correction       ...      0.00094421 Eh       0.59 kcal/mol
-----------------------------------------------------------------------
Total Enthalpy                    ...   -157.07084722 Eh


Note: Rotational entropy computed according to Herzberg 
Infrared and Raman Spectra, Chapter V,1, Van Nostrand Reinhold, 1945 
Point Group:  Ci, Symmetry Number:   1  
Rotational constants in cm-1:     1.167613     0.124484     0.117353 

Vibrational entropy computed according to the QRRHO of S. Grimme
Chem.Eur.J. 2012 18 9955 using a reference frequency of 100.0 cm-1


-------
ENTROPY
-------

The entropy contributions are T*S = T*(S(el)+S(vib)+S(rot)+S(trans))
     S(el)   - electronic entropy
     S(vib)  - vibrational entropy
     S(rot)  - rotational entropy
     S(trans)- translational entropy
The entropies will be listed as multiplied by the temperature to get
units of energy

Electronic entropy                ...      0.00000000 Eh      0.00 kcal/mol
Vibrational entropy               ...      0.00433761 Eh      2.72 kcal/mol
Rotational entropy                ...      0.01143278 Eh      7.17 kcal/mol
Translational entropy             ...      0.01805279 Eh     11.33 kcal/mol
-----------------------------------------------------------------------
Final entropy term                ...      0.03382317 Eh     21.22 kcal/mol

In case the symmetry of your molecule has not been determined correctly
or in case you have a reason to use a different symmetry number we print 
out the resulting rotational entropy values for sn=1,12:

 non-linear molecules -----------------------------------
|  sn= 1 | S(rot)=       0.01143278 Eh      7.17 kcal/mol|
|  sn= 2 | S(rot)=       0.01077832 Eh      6.76 kcal/mol|
|  sn= 3 | S(rot)=       0.01039549 Eh      6.52 kcal/mol|
|  sn= 4 | S(rot)=       0.01012387 Eh      6.35 kcal/mol|
|  sn= 5 | S(rot)=       0.00991318 Eh      6.22 kcal/mol|
|  sn= 6 | S(rot)=       0.00974103 Eh      6.11 kcal/mol|
|  sn= 7 | S(rot)=       0.00959549 Eh      6.02 kcal/mol|
|  sn= 8 | S(rot)=       0.00946941 Eh      5.94 kcal/mol|
|  sn= 9 | S(rot)=       0.00935820 Eh      5.87 kcal/mol|
|  sn=10 | S(rot)=       0.00925872 Eh      5.81 kcal/mol|
|  sn=11 | S(rot)=       0.00916873 Eh      5.75 kcal/mol|
|  sn=12 | S(rot)=       0.00908658 Eh      5.70 kcal/mol|
 linear molecules ---------------------------------------
|  Dinfh | S(rot)=       0.00734878 Eh      4.61 kcal/mol|
|  Cinfv | S(rot)=       0.00800324 Eh      5.02 kcal/mol|
 --------------------------------------------------------


-------------------
GIBBS FREE ENERGY
-------------------

The Gibbs free energy is G = H - T*S

Total enthalpy                    ...   -157.07084722 Eh 
Total entropy correction          ...     -0.03382317 Eh    -21.22 kcal/mol
-----------------------------------------------------------------------
Final Gibbs free energy         ...   -157.10467040 Eh

For completeness - the Gibbs free energy minus the electronic energy
G-E(el)                           ...      0.08006505 Eh     50.24 kcal/mol


Maximum memory used throughout the entire PROP-calculation: 42.4 MB

--------------------------------
SUGGESTED CITATIONS FOR THIS RUN
--------------------------------

Below you find a list of papers that are relevant to this ORCA run
We neither can nor want to force you to cite these papers, but we appreciate if you do
You receive ORCA, which is the product of decades of hard work by many enthusiastic individuals, for free
The only thing we kindly ask in return is that you cite our papers,
We deeply appreciate it, if you show your appreciation for ORCA by not just citing the generic ORCA reference.

Please note that relegating all ORCA citations to the supporting information does *not* help us.
SI sections are not indexed - citations you put there will not count into any citation statistics
But we need these citations in order to attract the funding resources that allow us to do what we are doing

Therefore, if you are a happy ORCA user, please consider citing a few of the papers listed below in the main body of your paper

In addition to the list printed below, the program has created the file trans.bibtex that contains the list in bibtex format
You can import this file easily into all common literature databanks and citation aid programs


List of essential papers. We consider these as the minimum necessary citations

  1. Neese,F.
     Software update: the ORCA program system, version 5.0
     WIRES Comput. Molec. Sci., 2022 12(1)e1606
     doi.org/10.1002/wcms.1606

List of papers to cite with high priority. The work reported in these papers was absolutely
necessary for this run to complete.
Our perspective: the developers of density functionals and basis sets usually get cited in chemistry papers
Good! But without the algorithms to do something with them, the functionals or basis sets would not do anything.
Hence, in our opinion, the algorithm design and method developments papers are equally worthy of getting cited

  1. Neese,F.
     An improvement of the resolution of the identity approximation for the formation of the Coulomb matrix
     J. Comp. Chem., 2003 24(14)1740-1747
     doi.org/10.1002/jcc.10318
  2. Neese,F.; Wennmohs,F.; Hansen,A.; Becker,U.
     Efficient, approximate and parallel Hartree-Fock and hybrid DFT calculations. A 'chain-of-spheres' algorithm for the Hartree-Fock exchange
     Chem. Phys., 2009 356(1-3)98-109
     doi.org/10.1016/j.chemphys.2008.10.036
  3. Bykov,D.; Petrenko,T.; Izsak,R.; Kossmann,S.; Becker,U.; Valeev,E.; Neese,F.
     Efficient implementation of the analytic second derivatives of Hartree-Fock and hybrid DFT energies: a detailed analysis of different approximations
     Molec. Phys., 2015 113 1961-1977
     doi.org/10.1080/00268976.2015.1025114
  4. Helmich-Paris,B.; de Souza,B.; Neese,F.; Izsák,R.
     An improved chain of spheres for exchange algorithm
     J. Chem. Phys., 2021 155 104109
     doi.org/doi: 10.1063/5.0058766.
  5. Neese,F.
     The SHARK Integral Generation and Digestion System
     J. Comp. Chem., 2022  1-16
     doi.org/10.1002/jcc.26942
  6. Caldeweyher,E.; Bannwarth,C.; Grimme,S.
     Extension of the D3 dispersion coefficient model
     J. Chem. Phys., 2017 147 034112-XXXX
     doi.org/10.1063/1.4993215
  7. Caldeweyher,E.; Ehlert,S.; Hansen,A.; Neugebauer,H.; Spicher,S.; Bannwarth,C.; Grimme,S.
     A generally applicable atomic-charge dependent London dispersion correction
     J. Chem. Phys., 2019 150 154122-XXXX
     doi.org/10.1063/1.5090222
  8. Caldeweyher,E.; Mewes,J.; Ehlert,S.; Grimme,S.
     Extension and evaluation of the D4 London-dispersion model for periodic systems
     Phys. Chem. Chem. Phys., 2020 22(16)8499-8512
     doi.org/10.1039/D0CP00502A

List of suggested additional citations. These are papers that are important in the 'surrounding' of 
of this run, or papers that preceded the highly important papers. If you like your results we are grateful for a citation.

  1. Izsak,R.; Neese,F.
     An overlap fitted chain of spheres exchange method
     J. Chem. Phys., 2011 135 144105
     doi.org/10.1063/1.3646921
  2. Izsak,R.; Hansen,A.; Neese,F.
     The resolution of identity and chain of spheres approximations for the LPNO-CCSD singles Fock term
     Molec. Phys., 2012 110 2413-2417
     doi.org/10.1080/00268976.2012.687466
  3. Neese,F.
     The ORCA program system
     WIRES Comput. Molec. Sci., 2012 2(1)73-78
     doi.org/10.1002/wcms.81
  4. Izsak,R.; Neese,F.; Klopper,W.
     Robust fitting techniques in the chain of spheres approximation to the Fock exchange: The role of the complementary space
     J. Chem. Phys., 2013 139 
     doi.org/10.1063/1.4819264
  5. Neese,F.
     Software update: the ORCA program system, version 4.0
     WIRES Comput. Molec. Sci., 2018 8(1)1-6
     doi.org/10.1002/wcms.1327
  6. Neese,F.; Wennmohs,F.; Becker,U.; Riplinger,C.
     The ORCA quantum chemistry program package
     J. Chem. Phys., 2020 152 Art. No. L224108
     doi.org/10.1063/5.0004608

List of optional additional citations

  1. Neese,F.
     Approximate second-order SCF convergence for spin unrestricted wavefunctions
     Chem. Phys. Lett., 2000 325(1-3)93-98
     doi.org/10.1016/s0009-2614(00)00662-x

Timings for individual modules:

Sum of individual times          ...      401.218 sec (=   6.687 min)
Startup calculation              ...        5.514 sec (=   0.092 min)   1.4 %
SCF iterations                   ...       37.960 sec (=   0.633 min)   9.5 %
Property integrals               ...       62.994 sec (=   1.050 min)  15.7 %
SCF Response                     ...       38.049 sec (=   0.634 min)   9.5 %
Property calculations            ...      237.689 sec (=   3.961 min)  59.2 %
SCF Gradient evaluation          ...       18.985 sec (=   0.316 min)   4.7 %
Geometry relaxation              ...        0.027 sec (=   0.000 min)   0.0 %
                             ****ORCA TERMINATED NORMALLY****
TOTAL RUN TIME: 0 days 0 hours 6 minutes 43 seconds 348 msec
