4
	Energy:       0.0541621
C         -1.45981       -0.36438        0.00000
O         -1.44106        0.86010       -0.00000
H         -2.30621       -0.93914        0.40866
H         -0.63141       -0.96479       -0.40866
