12
	Energy:     -12.6918678
C         -2.63908        1.93872        0.00000
C         -1.57558       -0.09083        0.00000
C         -2.77731       -0.78075        0.00000
C         -3.95684       -0.04395       -0.00000
C         -3.89177        1.34679       -0.00000
N         -1.48280        1.25567        0.00000
O         -2.50134        3.29529        0.00000
H         -3.38632        3.68508        0.00000
H         -4.80104        1.93466       -0.00000
H         -4.91839       -0.54921       -0.00000
H         -2.79215       -1.86482       -0.00000
H         -0.62601       -0.61812        0.00000
