12
	Energy:      -5.8396644
C          0.41911        2.31050        0.10922
C          1.70790        1.57387        0.02908
C          1.70424        0.23300       -0.00601
C          0.46053       -0.50177        0.03329
C         -0.70119        0.15986        0.10586
N         -0.71355        1.53109        0.14262
H         -1.59072        2.03361        0.19736
O          0.38657        3.53474        0.14258
H          0.49288       -1.58571        0.00296
H         -1.66251       -0.34187        0.13812
H          2.61199        2.16653        0.00210
H          2.63195       -0.32625       -0.06435
